
 Primary working directories    : /global/cscratch1/sd/mcbennet
 Secondary working directories  : /global/cscratch1/sd/mcbennet
 Wavefunction directory         : /global/homes/m/mcbennet/wfu/
 Main file repository           : /global/cscratch1/sd/mcbennet/

 SHA1      : 19cd028119e0e09f93f0674bd8af7968d9b3eff6
 NAME      : 2015.1.36
 ARCHNAME  : linux/x86_64
 FC        : /opt/cray/pe/craype/2.5.14/bin/ftn
 BLASLIB   : -L/opt/intel/compilers_and_libraries_2018.1.163/linux/mkl/lib/intel64 -Wl,-_start-group -lmkl_intel_ilp64 -lmkl_intel_thread -lmkl_core -Wl,-_end-group -liomp5
 id        : lbl

 Nodes     nprocs
 nid00048     2
 Number of processes for MPI-2 version of Molpro:   nprocs(total)=    3   nprocs(compute)=    2   nprocs(helper)=    1

 Using customized tuning parameters: mindgm=7; mindgv=16; mindgc=1; mindgr=1; noblas=0; minvec=7
 default implementation of scratch files=sf  

 ***,Calculation for Ag atom, singlet and triplet
 memory,512,m
 gthresh,twoint=1.e-12
 geometry={
 1
 La
 La  0.0 0.0 0.0
 }
 
 basis={
 ECP, la, 46, 2
 5
 2 2.021300 36.116173
 2 1.010700 0.219114
 1 15.00000    11.00000
 3 15.00000   165.0
 2 15.00000  -95.88000
 4
 2 3.309900 91.932177
 2 1.655000 -3.788764
 2 2.021300 -36.116173
 2 1.010700 -0.219114
 4
 2 2.836800 63.759486
 2 1.418400 -0.647958
 2 2.021300 -36.116173
 2 1.010700 -0.219114
 
 
 Including file /global/cscratch1/sd/mcbennet/Repos/heavy_element_ecps/atom/la/ccECP_mcb_2/basis/cc-pwCVTZ-DK3.basis
 }
 
 Including file /global/cscratch1/sd/mcbennet/Repos/heavy_element_ecps/atom/la/ccECP_mcb_2/basis/states.proc
 
 do i=1,4
     if (i.eq.1) then
         I6s25d
     else if (i.eq.2) then
         I6s15d
     else if (i.eq.3) then
         I5d
     else if (i.eq.4) then
         I5p6
     else if (i.eq.5) then
         II4d
     else if (i.eq.6) then
         III4p6
     endif
     scf(i)=energy
     _CC_NORM_MAX=2.0
     {rccsd(t),maxit=200;
     thresh,coeff=1d-3,energy=1d-5;
     core}
     ccsd(i)=energy
 enddo
 
 table,scf,ccsd
 type,csv
 save

 Variables initialized (889), CPU time= 0.01 sec
 Commands  initialized (702), CPU time= 0.01 sec, 572 directives.
 Default parameters read. Elapsed time= 1.19 sec

 Checking input...
 Passed
1


                                         ***  PROGRAM SYSTEM MOLPRO  ***
                                       Copyright, TTI GmbH Stuttgart, 2015
                                    Version 2015.1 linked Dec 29 2018 15:55:43


 **********************************************************************************************************************************
 LABEL *   Calculation for Ag atom, singlet and triplet                                  
  64 bit mpp version                                                                     DATE: 12-Nov-19          TIME: 05:43:15  
 **********************************************************************************************************************************

 SHA1:             19cd028119e0e09f93f0674bd8af7968d9b3eff6
 **********************************************************************************************************************************

 THRESHOLDS:

 ZERO    =  1.00D-12  ONEINT  =  1.00D-12  TWOINT  =  1.00D-12  PREFAC  =  1.00D-14  LOCALI  =  1.00D-09  EORDER  =  1.00D-04
 ENERGY  =  0.00D+00  ETEST   =  0.00D+00  EDENS   =  0.00D+00  THRDEDEF=  1.00D-06  GRADIENT=  1.00D-02  STEP    =  1.00D-03
 ORBITAL =  1.00D-05  CIVEC   =  1.00D-05  COEFF   =  1.00D-04  PRINTCI =  5.00D-02  PUNCHCI =  9.90D+01  OPTGRAD =  3.00D-04
 OPTENERG=  1.00D-06  OPTSTEP =  3.00D-04  THRGRAD =  1.00D-10  COMPRESS=  1.00D-11  VARMIN  =  1.00D-07  VARMAX  =  1.00D-03
 THRDOUB =  0.00D+00  THRDIV  =  1.00D-05  THRRED  =  1.00D-07  THRPSP  =  1.00D+00  THRDC   =  1.00D-10  THRCS   =  1.00D-10
 THRNRM  =  1.00D-08  THREQ   =  0.00D+00  THRDE   =  1.00D+00  THRREF  =  1.00D-05  SPARFAC =  1.00D+00  THRDLP  =  1.00D-07
 THRDIA  =  1.00D-10  THRDLS  =  1.00D-07  THRGPS  =  0.00D+00  THRKEX  =  0.00D+00  THRDIS  =  2.00D-01  THRVAR  =  1.00D-10
 THRLOC  =  1.00D-06  THRGAP  =  1.00D-06  THRLOCT = -1.00D+00  THRGAPT = -1.00D+00  THRORB  =  1.00D-06  THRMLTP =  0.00D+00
 THRCPQCI=  1.00D-10  KEXTA   =  0.00D+00  THRCOARS=  0.00D+00  SYMTOL  =  1.00D-06  GRADTOL =  1.00D-06  THROVL  =  1.00D-08
 THRORTH =  1.00D-08  GRID    =  1.00D-06  GRIDMAX =  1.00D-03  DTMAX   =  0.00D+00  THROCCDE=  1.00D-01  THROCCDE=  1.00D-01



Geometry recognized as XYZ


 Variable memory set to  512000000 words,  buffer space   230000 words

 SETTING BASIS          =    USERDEF

 DO I                   =         1.00000000   

 Running procedure=I6S25D


 Recomputing integrals since basis changed


 Using spherical harmonics



 PROGRAM * SEWARD (Integral evaluation for generally contracted gaussian basis sets)     Author: Roland Lindh, 1990

 Geometry written to block  1 of record 700

 Orientation using atomic masses  
 Molecule type: Atom
 Symmetry elements: X,Y,Z
 Rotational constants:       0.0000000      0.0000000      0.0000000 GHz  (calculated with average atomic masses)

 Point group  D2h 



 ATOMIC COORDINATES

 NR  ATOM    CHARGE       X              Y              Z

   1  LA     11.00    0.000000000    0.000000000    0.000000000

 NUCLEAR CHARGE:                   11
 NUMBER OF PRIMITIVE AOS:         414
 NUMBER OF SYMMETRY AOS:          325
 NUMBER OF CONTRACTIONS:          325   (  76Ag  +  54B3u +  54B2u +  24B1g +  54B1u +  24B2g +  24B3g +  15Au  )
 NUMBER OF CORE ORBITALS:           0   (   0Ag  +   0B3u +   0B2u +   0B1g +   0B1u +   0B2g +   0B3g +   0Au  )
 NUMBER OF VALENCE ORBITALS:       17   (   4Ag  +   3B3u +   3B2u +   1B1g +   3B1u +   1B2g +   1B3g +   1Au  )


 NUCLEAR REPULSION ENERGY    0.00000000

 EXTRA SYMMETRY OF AOS IN SYMMETRY 1:   1 1 1 1 1 1 1 1 1 1   1 1 1 1 1 1 1 1 1 1   1 1 1 1 1 1 1 1 1 1   1 1 2 3 2 3 2 3 2 3
                                        2 3 2 3 2 3 2 3 2 3   2 3 2 3 2 3 2 3 2 3   2 3 2 3 4 5 6 4 5 6   4 5 6 4 5 6
 EXTRA SYMMETRY OF AOS IN SYMMETRY 2:   1 1 1 1 1 1 1 1 1 1   1 1 1 1 1 1 1 1 1 1   1 1 1 1 1 2 3 2 3 2   3 2 3 2 3 2 3 2 3 2
                                        3 2 3 2 3 2 3 2 3 2   3 4 5 6
 EXTRA SYMMETRY OF AOS IN SYMMETRY 3:   1 1 1 1 1 1 1 1 1 1   1 1 1 1 1 1 1 1 1 1   1 1 1 1 1 2 3 2 3 2   3 2 3 2 3 2 3 2 3 2
                                        3 2 3 2 3 2 3 2 3 2   3 4 5 6
 EXTRA SYMMETRY OF AOS IN SYMMETRY 4:   1 1 1 1 1 1 1 1 1 1   1 1 1 1 1 1 2 3 2 3   2 3 2 3
 EXTRA SYMMETRY OF AOS IN SYMMETRY 5:   1 1 1 1 1 1 1 1 1 1   1 1 1 1 1 1 1 1 1 1   1 1 1 1 1 2 3 2 3 2   3 2 3 2 3 2 3 2 3 2
                                        3 2 3 2 3 2 3 2 3 2   3 4 5 6
 EXTRA SYMMETRY OF AOS IN SYMMETRY 6:   1 1 1 1 1 1 1 1 1 1   1 1 1 1 1 1 2 3 2 3   2 3 2 3
 EXTRA SYMMETRY OF AOS IN SYMMETRY 7:   1 1 1 1 1 1 1 1 1 1   1 1 1 1 1 1 2 3 2 3   2 3 2 3
 EXTRA SYMMETRY OF AOS IN SYMMETRY 8:   1 1 1 1 1 1 1 1 1 1   1 1 1 2 3

 Eigenvalues of metric

         1 0.164E-07 0.217E-05 0.293E-04 0.805E-04 0.200E-03 0.396E-03 0.702E-03 0.129E-02
         2 0.587E-05 0.769E-04 0.769E-04 0.338E-03 0.117E-02 0.124E-02 0.124E-02 0.260E-02
         3 0.587E-05 0.769E-04 0.769E-04 0.338E-03 0.117E-02 0.124E-02 0.124E-02 0.260E-02
         4 0.174E-02 0.626E-02 0.165E-01 0.371E-01 0.718E-01 0.127E+00 0.214E+00 0.314E+00
         5 0.587E-05 0.769E-04 0.769E-04 0.338E-03 0.117E-02 0.124E-02 0.124E-02 0.260E-02
         6 0.174E-02 0.626E-02 0.165E-01 0.371E-01 0.718E-01 0.127E+00 0.214E+00 0.314E+00
         7 0.174E-02 0.626E-02 0.165E-01 0.371E-01 0.718E-01 0.127E+00 0.214E+00 0.314E+00
         8 0.769E-04 0.124E-02 0.239E-01 0.663E-01 0.126E+00 0.262E+00 0.414E+00 0.720E+00


 Contracted 2-electron integrals neglected if value below      1.0D-13
 AO integral compression algorithm  1   Integral accuracy      1.0D-13

     1023.934 MB (compressed) written to integral file ( 39.0%)

     Node minimum: 499.384 MB, node maximum: 524.550 MB


 NUMBER OF SORTED TWO-ELECTRON INTEGRALS:   90543174.     BUFFER LENGTH:  32768
 NUMBER OF SEGMENTS:   3  SEGMENT LENGTH:   31995933      RECORD LENGTH: 524288

 Memory used in sort:      32.55 MW

 SORT1 READ   328312177. AND WROTE    52764648. INTEGRALS IN    152 RECORDS. CPU TIME:     5.89 SEC, REAL TIME:     6.63 SEC
 SORT2 READ   104688401. AND WROTE   181127203. INTEGRALS IN   4002 RECORDS. CPU TIME:     1.54 SEC, REAL TIME:     2.22 SEC

 Node minimum:    90543174.  Node maximum:    90584029. integrals

 OPERATOR DM      FOR CENTER  0  COORDINATES:    0.000000    0.000000    0.000000


 **********************************************************************************************************************************
 DATASETS  * FILE   NREC   LENGTH (MB)   RECORD NAMES
              1      19       20.67       500      610      700      900      950      970     1000      129      960     1100   
                                          VAR    BASINP    GEOM    SYMINP    ZMAT    AOBASIS   BASIS     P2S    ABASIS      S 
                                         1400     1410     1420     1200     1210     1080     1600     1650     1700   
                                           T        V       ECP      H0       H01     AOSYM     SMH    MOLCAS    OPER   

 PROGRAMS   *        TOTAL       INT
 CPU TIMES  *        83.61     83.44
 REAL TIME  *        88.76 SEC
 DISK USED  *         2.27 GB      
 GA USED    *         0.00 MB       (max)       0.00 MB       (current)
 **********************************************************************************************************************************


 PROGRAM * RHF-SCF (OPEN SHELL)       Authors: W. Meyer, H.-J. Werner


 NUMBER OF ELECTRONS:       6+    5-    SPACE SYMMETRY=1    SPIN SYMMETRY: Doublet 
 CONVERGENCE THRESHOLDS:    1.00E-05 (Density)    1.00E-07 (Energy)
 MAX. NUMBER OF ITERATIONS:       60
 INTERPOLATION TYPE:            DIIS
 INTERPOLATION STEPS:              2 (START)      1 (STEP)
 LEVEL SHIFTS:                 -0.60 (CLOSED) -0.30 (OPEN) 

 Number of closed-shell orbitals:    5 (   2   1   1   0   1   0   0   0 )
 Number of open-shell orbitals:      1 (   1   0   0   0   0   0   0   0 )


 
 Extra symmetries of mos in symmetry 1:   1   1   2
 Orbital guess generated from atomic densities. Full valence occupancy:    4   1   1   1   1   1   1   0


 Molecular orbital dump at record        4202.2

 ITERATION    DDIFF          GRAD             ENERGY        2-EL.EN.            DIPOLE MOMENTS         DIIS   ORB.
    1      0.000D+00      0.000D+00       -31.05141840     39.942897    0.00000    0.00000    0.00000    0    start
    2      0.000D+00      0.243D-02       -31.06249075     40.406394    0.00000    0.00000    0.00000    1    diag,B
    3      0.109D-01      0.124D-02       -31.06789520     40.655309    0.00000    0.00000    0.00000    2    diag,B
    4      0.178D-02      0.765D-03       -31.07108743     40.840781    0.00000    0.00000    0.00000    3    diag,B
    5      0.712D-02      0.273D-03       -31.07151734     40.863051    0.00000    0.00000    0.00000    4    diag,B
    6      0.236D-02      0.156D-03       -31.07172811     40.855133    0.00000    0.00000    0.00000    5    diag,B
    7      0.156D-02      0.983D-04       -31.07183809     40.844833    0.00000    0.00000    0.00000    6    fixocc
    8      0.119D-02      0.640D-04       -31.07190048     40.843512    0.00000    0.00000    0.00000    7    diag,B
    9      0.953D-03      0.381D-04       -31.07192280     40.846896    0.00000    0.00000    0.00000    8    diag,B
   10      0.904D-03      0.158D-04       -31.07192549     40.849767    0.00000    0.00000    0.00000    9    orth
   11      0.125D-03      0.103D-04       -31.07192626     40.851557    0.00000    0.00000    0.00000    9    diag,B
   12      0.135D-03      0.573D-05       -31.07192654     40.853077    0.00000    0.00000    0.00000    9    diag,B
   13      0.168D-03      0.173D-05       -31.07192656     40.853378    0.00000    0.00000    0.00000    9    diag,B
   14      0.387D-04      0.942D-06       -31.07192657     40.853437    0.00000    0.00000    0.00000    9    diag,B
   15      0.446D-05      0.854D-06       -31.07192657     40.853441    0.00000    0.00000    0.00000    0    orth

 Final alpha occupancy:   3   1   1   0   1   0   0   0
 Final beta  occupancy:   2   1   1   0   1   0   0   0

 !RHF STATE 1.1 Energy                -31.071926568747
 Nuclear energy                         0.00000000
 One-electron energy                  -51.49864724
 Two-electron energy                   20.42672067
 Virial quotient                       -3.73935196
 !RHF STATE 1.1 Dipole moment           0.00000000     0.00000000     0.00000000
 Dipole moment /Debye                   0.00000000     0.00000000     0.00000000

 ELECTRON ORBITALS
 =================


   Orb  Occ    Energy  Couls-En    Coefficients

                                   1 1s      1 1s      1 1s      1 1s      1 1s      1 1s      1 1s      1 1s      1 1s      1 1s   
                                   1 1s      1 1s      1 1s      1 1s      1 1s      1 1s      1 1s      1 1s      1 1s      1 1s   
                                   1 1s      1 1s      1 1s      1 1s      1 1s      1 1s      1 1s      1 1s      1 1s      1 1s   
                                   1 1s      1 1s      1 3d0     1 3d2+    1 3d0     1 3d2+    1 3d0     1 3d2+    1 3d0     1 3d2+ 
                                   1 3d0     1 3d2+    1 3d0     1 3d2+    1 3d0     1 3d2+    1 3d0     1 3d2+    1 3d0     1 3d2+ 
                                   1 3d0     1 3d2+    1 3d0     1 3d2+    1 3d0     1 3d2+    1 3d0     1 3d2+    1 3d0     1 3d2+ 
                                   1 3d0     1 3d2+    1 3d0     1 3d2+    1 5g0     1 5g4+    1 5g2+    1 5g0     1 5g4+    1 5g2+ 
                                   1 5g0     1 5g4+    1 5g2+    1 5g0     1 5g4+    1 5g2+ 

   1.1   2    -1.8491   -7.8790 -0.000000  0.000000 -0.000000  0.000000 -0.000000  0.000000 -0.000000  0.000000 -0.000000  0.000000
                                -0.000001  0.000002 -0.000004  0.000009 -0.000020  0.000044 -0.000100  0.000239 -0.000579  0.002799
                                -0.025990 -1.176308 -0.478721 -0.788543  0.127060  0.855712  0.431405  0.017359 -0.005234  0.000857
                                 0.560709  1.269994 -0.000000 -0.000000  0.000000  0.000000 -0.000000 -0.000000  0.000000  0.000000
                                -0.000001 -0.000000  0.000003  0.000000 -0.000009 -0.000000  0.000018  0.000000 -0.000039 -0.000000
                                 0.000059  0.000000 -0.000278 -0.000001  0.002114  0.000009 -0.004987 -0.000023 -0.004542 -0.000004
                                -0.001488  0.000014 -0.001012  0.000002  0.000032  0.000000 -0.000000 -0.000162 -0.000000  0.000001
                                 0.000547  0.000000 -0.000002  0.001311  0.000000 -0.000006

   2.1   2    -0.1798   -2.6915  0.000000 -0.000000  0.000000 -0.000000  0.000000 -0.000000  0.000000 -0.000000  0.000000 -0.000000
                                 0.000000 -0.000000  0.000001 -0.000002  0.000004 -0.000008  0.000019 -0.000046  0.000107 -0.000592
                                 0.006276  0.368152  0.191123  0.261781 -0.050210 -0.379841 -0.379584  0.322504  0.667458  0.239270
                                -0.166462 -0.433961  0.000000  0.000000 -0.000000 -0.000000  0.000000  0.000000 -0.000001 -0.000000
                                 0.000004  0.000000 -0.000013 -0.000000  0.000033  0.000000 -0.000088 -0.000000  0.000149  0.000000
                                -0.000377 -0.000001 -0.000602 -0.000000  0.012232  0.000010 -0.022225 -0.000012 -0.065677 -0.000071
                                -0.084085 -0.000166 -0.049512 -0.000132  0.000022  0.000000  0.000000 -0.000186 -0.000000  0.000000
                                 0.001362  0.000000 -0.000001  0.001639  0.000000  0.000005

   3.1   +    -0.2383   -3.7175  0.000000 -0.000000  0.000000 -0.000000  0.000000 -0.000000  0.000000 -0.000000  0.000000 -0.000000
                                 0.000000 -0.000001  0.000002 -0.000004  0.000009 -0.000019  0.000043 -0.000101  0.000247 -0.000962
                                 0.006121  0.127974  0.056194  0.040855 -0.000509 -0.087902 -0.067398  0.109717  0.100316  0.021242
                                -0.071699 -0.119409 -0.000000  0.000000  0.000000 -0.000000 -0.000002  0.000000  0.000007 -0.000000
                                -0.000023  0.000000  0.000067 -0.000000 -0.000174  0.000001  0.000489 -0.000002 -0.000795  0.000003
                                 0.002149 -0.000008  0.004613 -0.000017 -0.083139  0.000299  0.155973 -0.000562  0.441037 -0.001586
                                 0.457876 -0.001623  0.165870 -0.000606  0.000047 -0.000000 -0.000000 -0.000316  0.000000  0.000000
                                 0.001593 -0.000000 -0.000000  0.008718 -0.000000 -0.000005

   4.1   0     0.0382   -2.9479 -0.000000  0.000000 -0.000000  0.000000 -0.000000  0.000000 -0.000000  0.000000 -0.000000  0.000000
                                -0.000000  0.000000 -0.000000  0.000000 -0.000001  0.000001 -0.000003  0.000007 -0.000018  0.000069
                                -0.000397 -0.004671 -0.001484  0.000631 -0.000543  0.000535 -0.000745  0.001834 -0.003965  0.003716
                                 0.003232  0.002915 -0.000000 -0.000000  0.000000  0.000001 -0.000000 -0.000003  0.000000  0.000013
                                -0.000000 -0.000045  0.000000  0.000132 -0.000001 -0.000340  0.000003  0.000845 -0.000005 -0.001571
                                 0.000012  0.003434  0.000000  0.000233 -0.000189 -0.056720  0.000347  0.104636  0.001158  0.344849
                                 0.001120  0.324477  0.001766  0.505123  0.000000 -0.000000 -0.000062 -0.000003  0.000000  0.000455
                                 0.000015 -0.000003 -0.002939  0.000060 -0.000009 -0.008158

   5.1   0     0.0522   -1.2086 -0.000000  0.000000 -0.000000  0.000000 -0.000000  0.000000 -0.000000  0.000001 -0.000003  0.000008
                                -0.000021  0.000053 -0.000128  0.000301 -0.000678  0.001461 -0.003325  0.007721 -0.018926  0.071081
                                -0.414565 -5.100495 -1.679976  0.449365 -0.526343  0.865281 -0.489509  1.623946 -4.326917  3.168886
                                 3.461000  3.342530 -0.000000  0.000000  0.000000 -0.000000 -0.000000  0.000000  0.000000 -0.000000
                                -0.000001  0.000000  0.000003 -0.000000 -0.000008  0.000000  0.000020 -0.000001 -0.000037  0.000002
                                 0.000075 -0.000005 -0.000051  0.000001 -0.000597  0.000065  0.000839 -0.000122  0.005200 -0.000413
                                 0.006144 -0.000334  0.010341 -0.000674 -0.000021 -0.000000  0.000000  0.000150  0.000000 -0.000001
                                -0.000825 -0.000000  0.000007 -0.003407 -0.000000  0.000025

                                   1 2px     1 2px     1 2px     1 2px     1 2px     1 2px     1 2px     1 2px     1 2px     1 2px  
                                   1 2px     1 2px     1 2px     1 2px     1 2px     1 2px     1 2px     1 2px     1 2px     1 2px  
                                   1 2px     1 2px     1 2px     1 2px     1 2px     1 4f1+    1 4f3+    1 4f1+    1 4f3+    1 4f1+ 
                                   1 4f3+    1 4f1+    1 4f3+    1 4f1+    1 4f3+    1 4f1+    1 4f3+    1 4f1+    1 4f3+    1 4f1+ 
                                   1 4f3+    1 4f1+    1 4f3+    1 4f1+    1 4f3+    1 4f1+    1 4f3+    1 4f1+    1 4f3+    1 4f1+ 
                                   1 4f3+    1 6h1+    1 6h3+    1 6h5+ 

   1.2   2    -1.0598   -6.2170  0.000000 -0.000000  0.000000 -0.000000  0.000000 -0.000000  0.000000 -0.000002  0.000005 -0.000016
                                 0.000046 -0.000124  0.000348 -0.000942  0.004618 -0.031209 -0.164276 -0.305598  0.203455  0.583964
                                 0.389952  0.061467 -0.005536  0.002350  0.219142  0.000000  0.000000 -0.000001 -0.000000  0.000003
                                 0.000000 -0.000016 -0.000000  0.000302  0.000000  0.000437 -0.000000 -0.000444 -0.000004 -0.005286
                                -0.000018 -0.005164 -0.000001 -0.001370  0.000003 -0.000109 -0.000000 -0.000456 -0.000001  0.000161
                                 0.000003 -0.000408  0.000002 -0.000000

   2.2   0     0.0154   -1.6079  0.000000 -0.000000  0.000000 -0.000000  0.000000 -0.000000  0.000001 -0.000004  0.000013 -0.000039
                                 0.000108 -0.000278  0.000687 -0.001772  0.004494 -0.014508 -0.082091  0.096603 -0.088569 -0.050647
                                -0.218691  0.289758 -0.229178  1.076137  0.067850 -0.000000 -0.000000  0.000000  0.000000 -0.000001
                                -0.000000  0.000006  0.000000 -0.000119 -0.000001 -0.000247 -0.000002 -0.000073 -0.000001 -0.000012
                                 0.000004 -0.003813 -0.000002 -0.007401 -0.000018 -0.006731 -0.000025  0.000174  0.000001  0.000321
                                 0.000002  0.000125 -0.000000  0.000000

   3.2   0     0.1075   -1.4867 -0.000000  0.000000 -0.000000  0.000000 -0.000000  0.000001 -0.000006  0.000020 -0.000066  0.000199
                                -0.000551  0.001426 -0.003568  0.009257 -0.026024  0.103050  0.600739 -0.121565  0.167769 -0.506958
                                 0.339407 -1.104260  2.909129 -1.864716 -0.584107 -0.000000 -0.000000  0.000002  0.000000 -0.000011
                                -0.000000  0.000058  0.000000 -0.001078 -0.000002 -0.002144 -0.000003 -0.001557 -0.000002  0.001021
                                 0.000007 -0.008034 -0.000006 -0.005018 -0.000018 -0.034151 -0.000053  0.001576  0.000002  0.002757
                                 0.000003  0.000169 -0.000001  0.000000

                                   1 2py     1 2py     1 2py     1 2py     1 2py     1 2py     1 2py     1 2py     1 2py     1 2py  
                                   1 2py     1 2py     1 2py     1 2py     1 2py     1 2py     1 2py     1 2py     1 2py     1 2py  
                                   1 2py     1 2py     1 2py     1 2py     1 2py     1 4f1-    1 4f3-    1 4f1-    1 4f3-    1 4f1- 
                                   1 4f3-    1 4f1-    1 4f3-    1 4f1-    1 4f3-    1 4f1-    1 4f3-    1 4f1-    1 4f3-    1 4f1- 
                                   1 4f3-    1 4f1-    1 4f3-    1 4f1-    1 4f3-    1 4f1-    1 4f3-    1 4f1-    1 4f3-    1 4f1- 
                                   1 4f3-    1 6h1-    1 6h3-    1 6h5- 

   1.3   2    -1.0598   -6.2171  0.000000 -0.000000  0.000000 -0.000000  0.000000 -0.000000  0.000000 -0.000002  0.000005 -0.000016
                                 0.000046 -0.000124  0.000348 -0.000942  0.004619 -0.031211 -0.164284 -0.305600  0.203446  0.584007
                                 0.389932  0.061442 -0.005529  0.002348  0.219152  0.000000  0.000000 -0.000001 -0.000000  0.000003
                                 0.000000 -0.000016 -0.000000  0.000301  0.000000  0.000434 -0.000000 -0.000445 -0.000004 -0.005274
                                -0.000018 -0.005125 -0.000001 -0.001354  0.000003 -0.000109 -0.000000 -0.000454 -0.000001  0.000164
                                 0.000003 -0.000406  0.000002 -0.000000

   2.3   0     0.0154   -1.6081  0.000000 -0.000000  0.000000 -0.000000  0.000000 -0.000000  0.000001 -0.000004  0.000013 -0.000039
                                 0.000108 -0.000278  0.000686 -0.001771  0.004492 -0.014497 -0.082030  0.096590 -0.088550 -0.050697
                                -0.218680  0.289672 -0.228814  1.075886  0.067791 -0.000000 -0.000000  0.000000  0.000000 -0.000001
                                -0.000000  0.000006  0.000000 -0.000119 -0.000001 -0.000246 -0.000002 -0.000072 -0.000001 -0.000001
                                 0.000004 -0.003769 -0.000002 -0.007341 -0.000019 -0.006691 -0.000025  0.000174  0.000001  0.000319
                                 0.000002  0.000125 -0.000000  0.000000

   3.3   0     0.1074   -1.4866 -0.000000  0.000000 -0.000000  0.000000 -0.000000  0.000001 -0.000006  0.000020 -0.000066  0.000199
                                -0.000551  0.001426 -0.003568  0.009256 -0.026023  0.103046  0.600713 -0.121569  0.167773 -0.506927
                                 0.339380 -1.104183  2.909091 -1.864855 -0.584081 -0.000000 -0.000000  0.000002  0.000000 -0.000011
                                -0.000000  0.000057  0.000000 -0.001068 -0.000002 -0.002124 -0.000003 -0.001540 -0.000002  0.001026
                                 0.000007 -0.007945 -0.000006 -0.004978 -0.000018 -0.033828 -0.000054  0.001562  0.000002  0.002729
                                 0.000004  0.000168 -0.000001  0.000000

                                   1 3d2-    1 3d2-    1 3d2-    1 3d2-    1 3d2-    1 3d2-    1 3d2-    1 3d2-    1 3d2-    1 3d2- 
                                   1 3d2-    1 3d2-    1 3d2-    1 3d2-    1 3d2-    1 3d2-    1 5g2-    1 5g4-    1 5g2-    1 5g4- 
                                   1 5g2-    1 5g4-    1 5g2-    1 5g4- 

   1.4   0     0.0382   -2.9479 -0.000000  0.000001 -0.000003  0.000013 -0.000045  0.000132 -0.000340  0.000845 -0.001571  0.003434
                                 0.000233 -0.056721  0.104637  0.344851  0.324478  0.505128 -0.000062 -0.000000  0.000455  0.000000
                                -0.002939 -0.000003 -0.008158 -0.000009

   2.4   0     0.1862   -2.0101 -0.000000  0.000003 -0.000014  0.000058 -0.000198  0.000582 -0.001490  0.003351 -0.007010  0.012826
                                -0.029964  0.107239 -0.194383 -0.142933 -0.849632  1.181816  0.000045  0.000000 -0.000342 -0.000001
                                 0.002352  0.000005  0.004952 -0.000008

                                   1 2pz     1 2pz     1 2pz     1 2pz     1 2pz     1 2pz     1 2pz     1 2pz     1 2pz     1 2pz  
                                   1 2pz     1 2pz     1 2pz     1 2pz     1 2pz     1 2pz     1 2pz     1 2pz     1 2pz     1 2pz  
                                   1 2pz     1 2pz     1 2pz     1 2pz     1 2pz     1 4f0     1 4f2+    1 4f0     1 4f2+    1 4f0  
                                   1 4f2+    1 4f0     1 4f2+    1 4f0     1 4f2+    1 4f0     1 4f2+    1 4f0     1 4f2+    1 4f0  
                                   1 4f2+    1 4f0     1 4f2+    1 4f0     1 4f2+    1 4f0     1 4f2+    1 4f0     1 4f2+    1 4f0  
                                   1 4f2+    1 6h2+    1 6h4+    1 6h0  

   1.5   2    -1.0550   -6.2085  0.000000 -0.000000  0.000000 -0.000000  0.000000 -0.000000  0.000000 -0.000002  0.000005 -0.000016
                                 0.000044 -0.000118  0.000334 -0.000906  0.004517 -0.030808 -0.162388 -0.305522  0.205070  0.577686
                                 0.392533  0.065736 -0.006868  0.002486  0.217096 -0.000000  0.000000  0.000000 -0.000000 -0.000001
                                 0.000000  0.000004 -0.000000 -0.000076  0.000002 -0.000235  0.000002 -0.000348 -0.000003  0.000039
                                -0.000032  0.005809 -0.000031  0.002985 -0.000008 -0.000031 -0.000001  0.000117 -0.000002  0.000394
                                 0.000002  0.000002 -0.000000 -0.000543

   2.5   0     0.0141   -1.6368  0.000000 -0.000000  0.000000 -0.000000  0.000000 -0.000000  0.000001 -0.000004  0.000012 -0.000037
                                 0.000101 -0.000261  0.000644 -0.001661  0.004164 -0.013068 -0.073392  0.097788 -0.088936 -0.062731
                                -0.218957  0.291360 -0.192058  1.044526  0.059017  0.000000 -0.000000 -0.000000  0.000000  0.000001
                                -0.000000 -0.000002  0.000000  0.000032 -0.000001  0.000181 -0.000003  0.000375 -0.000002  0.002939
                                -0.000003  0.010369 -0.000039  0.014187 -0.000073  0.008676 -0.000063 -0.000038  0.000002 -0.000659
                                 0.000004 -0.000001  0.000000  0.000165

   3.5   0     0.1051   -1.4785 -0.000000  0.000000 -0.000000  0.000000 -0.000000  0.000001 -0.000006  0.000020 -0.000066  0.000197
                                -0.000544  0.001409 -0.003527  0.009150 -0.025736  0.102005  0.594853 -0.117866  0.163387 -0.505450
                                 0.331505 -1.072351  2.873558 -1.872974 -0.578702  0.000001 -0.000000 -0.000004  0.000000  0.000021
                                -0.000000 -0.000107  0.000000  0.001979 -0.000009  0.004003 -0.000018  0.003429 -0.000014  0.002181
                                 0.000004  0.018888 -0.000073  0.011015 -0.000058  0.063051 -0.000285 -0.002876  0.000013 -0.005660
                                 0.000023 -0.000001  0.000000  0.000212

                                   1 3d1+    1 3d1+    1 3d1+    1 3d1+    1 3d1+    1 3d1+    1 3d1+    1 3d1+    1 3d1+    1 3d1+ 
                                   1 3d1+    1 3d1+    1 3d1+    1 3d1+    1 3d1+    1 3d1+    1 5g1+    1 5g3+    1 5g1+    1 5g3+ 
                                   1 5g1+    1 5g3+    1 5g1+    1 5g3+ 

   1.6   0     0.0482   -2.8546 -0.000000  0.000001 -0.000004  0.000015 -0.000050  0.000148 -0.000379  0.000932 -0.001758  0.003767
                                -0.000728 -0.052154  0.096617  0.330699  0.297515  0.551170  0.000001 -0.000000  0.000008  0.000002
                                -0.000255 -0.000012  0.001224 -0.000042

   2.6   0     0.1913   -2.0713 -0.000000  0.000003 -0.000014  0.000059 -0.000202  0.000593 -0.001518  0.003414 -0.007143  0.013063
                                -0.030566  0.109778 -0.199145 -0.144937 -0.877858  1.165284  0.000011  0.000000 -0.000089 -0.000002
                                 0.000679  0.000011 -0.001458  0.000020

                                   1 3d1-    1 3d1-    1 3d1-    1 3d1-    1 3d1-    1 3d1-    1 3d1-    1 3d1-    1 3d1-    1 3d1- 
                                   1 3d1-    1 3d1-    1 3d1-    1 3d1-    1 3d1-    1 3d1-    1 5g1-    1 5g3-    1 5g1-    1 5g3- 
                                   1 5g1-    1 5g3-    1 5g1-    1 5g3- 

   1.7   0     0.0481   -2.8555 -0.000000  0.000001 -0.000004  0.000015 -0.000050  0.000147 -0.000379  0.000931 -0.001756  0.003764
                                -0.000719 -0.052194  0.096685  0.330802  0.297826  0.550713  0.000001 -0.000000  0.000007  0.000002
                                -0.000249 -0.000012  0.001247 -0.000042

   2.7   0     0.1912   -2.0707 -0.000000  0.000003 -0.000014  0.000059 -0.000202  0.000593 -0.001518  0.003414 -0.007142  0.013061
                                -0.030561  0.109750 -0.199092 -0.144899 -0.877627  1.165465  0.000011  0.000000 -0.000088 -0.000002
                                 0.000675  0.000011 -0.001481  0.000020

                                   1 4f2-    1 4f2-    1 4f2-    1 4f2-    1 4f2-    1 4f2-    1 4f2-    1 4f2-    1 4f2-    1 4f2- 
                                   1 4f2-    1 4f2-    1 4f2-    1 6h4-    1 6h2- 

   1.8   0     0.1474   -1.1588  0.000014 -0.000094  0.000448 -0.002373  0.044145  0.086662  0.069050 -0.050350  0.120185 -0.247829
                                 1.122817 -0.064551 -0.110468 -0.000000 -0.000040

   2.8   0     0.3902   -1.5714 -0.000037  0.000243 -0.001158  0.006158 -0.114859 -0.224226 -0.176674  0.187515 -0.189849  1.372477
                                -0.693836  0.168224  0.278937 -0.000002 -0.000302

 HOMO      3.1    -0.238329 =      -6.4853eV
 LUMO      2.5     0.014107 =       0.3839eV
 LUMO-HOMO         0.252436 =       6.8691eV


 **********************************************************************************************************************************
 DATASETS  * FILE   NREC   LENGTH (MB)   RECORD NAMES
              1      19       20.70       500      610      700      900      950      970     1000      129      960     1100   
                                          VAR    BASINP    GEOM    SYMINP    ZMAT    AOBASIS   BASIS     P2S    ABASIS      S 
                                         1400     1410     1420     1200     1210     1080     1600     1650     1700   
                                           T        V       ECP      H0       H01     AOSYM     SMH    MOLCAS    OPER   

              2       5        5.86       200      700     1000      520     4202   
                                        OPTIONS   GEOM     BASIS   MCVARS     RHF  

 PROGRAMS   *        TOTAL       RHF       INT
 CPU TIMES  *        87.60      3.99     83.44
 REAL TIME  *        94.61 SEC
 DISK USED  *         2.33 GB      
 SF USED    *         0.07 MB      
 GA USED    *         0.00 MB       (max)       0.00 MB       (current)
 **********************************************************************************************************************************
 SETTING SCF(1)         =       -31.07192657  AU                              
 SETTING _CC_NORM_MAX   =         2.00000000                                  


 PROGRAM * CCSD (Restricted open-shell coupled cluster)     Authors: C. Hampel, H.-J. Werner, 1991, M. Deegan, P.J. Knowles, 1992


 Input parameters for THRESH:

 TWOINT =    1.00D-12
 ENERGY =    1.00D-05
 COEFF  =    0.001000

 Convergence thresholds:  THRVAR = 1.00D-06  THRDEN = 1.00D-05

 CCSD(T)     terms to be evaluated (factor= 1.000)


 Number of closed-shell orbitals:   5 (   2   1   1   0   1   0   0   0 )
 Number of active  orbitals:        1 (   1   0   0   0   0   0   0   0 )
 Number of external orbitals:     319 (  73  53  53  24  53  24  24  15 )

 Memory could be reduced to 54.85 Mwords without degradation in triples

 Number of N-1 electron functions:              11
 Number of N-2 electron functions:              55
 Number of singly external CSFs:               688
 Number of doubly external CSFs:            588154
 Total number of CSFs:                      588842

 Molecular orbitals read from record     4202.2  Type=RHF/CANONICAL (state 1.1)

 Integral transformation finished. Total CPU:   1.32 sec, npass=  1  Memory used:   7.52 MW

 Starting RMP2 calculation

 Wavefunction is spin-projected

 ITER.      SQ.NORM     CORR.ENERGY   TOTAL ENERGY   ENERGY CHANGE        DEN1      VAR(S)    VAR(P)  DIIS     TIME
   1      1.11879796    -0.28651841   -31.35844498    -0.28651841    -0.00212861  0.12D-04  0.21D-02  1  1     1.36
   2      1.12483007    -0.28889976   -31.36082633    -0.00238135    -0.00005058  0.16D-06  0.75D-04  2  2     1.40
   3      1.12615190    -0.28919574   -31.36112231    -0.00029599    -0.00000038  0.39D-08  0.51D-06  3  3     1.44
   4      1.12621830    -0.28920468   -31.36113124    -0.00000893    -0.00000000  0.25D-09  0.67D-08  4  4     1.46

 Norm of t1 vector:      0.03091038      S-energy:    -0.00170467      T1 diagnostic:  0.00020180
 Norm of t2 vector:      0.35392491      P-energy:    -0.28750000
                                         Alpha-Beta:  -0.21795752
                                         Alpha-Alpha: -0.04002347
                                         Beta-Beta:   -0.02951902

 Spin contamination <S**2-Sz**2-Sz>     0.00000000
  Reference energy                    -31.071926568747
  RHF-RMP2 correlation energy          -0.289204675861
 !RHF-RMP2 energy                     -31.361131244608
 (NB above energy spin projected)

 Starting RCCSD calculation

 ITER.      SQ.NORM     CORR.ENERGY   TOTAL ENERGY   ENERGY CHANGE        DEN1      VAR(S)    VAR(P)  DIIS     TIME
   1      1.12020709    -0.28647260   -31.35839917    -0.28647260    -0.00679362  0.25D-02  0.33D-02  1  1     2.90
   2      1.13897738    -0.29349823   -31.36542480    -0.00702562    -0.00084200  0.40D-03  0.74D-03  2  2     4.37
   3      1.15129776    -0.29535239   -31.36727896    -0.00185416    -0.00020604  0.12D-03  0.19D-03  3  3     5.85
   4      1.16196667    -0.29649230   -31.36841887    -0.00113991    -0.00003966  0.76D-05  0.47D-04  4  4     7.30
   5      1.16686872    -0.29684539   -31.36877196    -0.00035309    -0.00001174  0.97D-06  0.15D-04  5  5     8.73
   6      1.16864639    -0.29692190   -31.36884846    -0.00007650    -0.00000354  0.79D-06  0.43D-05  6  6    10.17
   7      1.16955450    -0.29696077   -31.36888734    -0.00003888    -0.00000084  0.49D-06  0.79D-06  6  1    11.64
   8      1.16980384    -0.29696424   -31.36889081    -0.00000346    -0.00000021  0.21D-06  0.13D-06  6  2    13.09

 Norm of t1 vector:      0.12003506      S-energy:    -0.00169165      T1 diagnostic:  0.02474535
                                                                       D1 diagnostic:  0.08140409
 Norm of t2 vector:      0.39420227      P-energy:    -0.29527259
                                         Alpha-Beta:  -0.23122993
                                         Alpha-Alpha: -0.03713035
                                         Beta-Beta:   -0.02691232

 Singles amplitudes (print threshold =  0.500E-01):

         I         SYM. A    A   T(IA) [Alpha-Alpha]

         2         1         3     -0.07128778
 
         I         SYM. A    A   T(IA) [Beta-Beta]

         2         1         3     -0.06287668

 Doubles amplitudes (print threshold =  0.500E-01):

         I         J         SYM. A    SYM. B    A         B      T(IJ, AB) [Alpha-Beta]

         2         2         1         1         2         2     -0.08409134
         2         2         2         2         1         1     -0.07553308
         2         2         2         2         1         2     -0.05228337
         2         2         2         2         2         1     -0.05228337
         2         2         3         3         1         1     -0.07566340
         2         2         3         3         1         2     -0.05235451
         2         2         3         3         2         1     -0.05235451
         2         2         4         4         1         1     -0.08409120
         2         2         5         5         1         1     -0.05149206
         3         2         1         1         2         2      0.05748181
         3         2         4         4         1         1      0.05748452

 Spin contamination <S**2-Sz**2-Sz>     0.00000000

 Memory could be reduced to 55.59 Mwords without degradation in triples
 

 RESULTS
 =======

  Reference energy                    -31.071926568747
  RCCSD singles energy                 -0.001691645933
  RCCSD pair energy                    -0.295272591951
  RCCSD correlation energy             -0.296964237884
  Triples (T) contribution             -0.014890088902
  Total correlation energy             -0.311854326786
 
  RHF-RCCSD energy                    -31.368890806631
  RHF-RCCSD[T] energy                 -31.384143500896
  RHF-RCCSD-T energy                  -31.383735711440
 !RHF-RCCSD(T) energy                 -31.383780895533

 Program statistics:

 Available memory in ccsd:               511999552
 Min. memory needed in ccsd:               2030291
 Max. memory used in ccsd:                 2696085
 Max. memory used in cckext:               2315127 ( 8 integral passes)
 Max. memory used in cckint:               7520305 ( 1 integral passes)



 **********************************************************************************************************************************
 DATASETS  * FILE   NREC   LENGTH (MB)   RECORD NAMES
              1      19       20.70       500      610      700      900      950      970     1000      129      960     1100   
                                          VAR    BASINP    GEOM    SYMINP    ZMAT    AOBASIS   BASIS     P2S    ABASIS      S 
                                         1400     1410     1420     1200     1210     1080     1600     1650     1700   
                                           T        V       ECP      H0       H01     AOSYM     SMH    MOLCAS    OPER   

              2       5        5.86       200      700     1000      520     4202   
                                        OPTIONS   GEOM     BASIS   MCVARS     RHF  

 PROGRAMS   *        TOTAL  RCCSD(T)       RHF       INT
 CPU TIMES  *       116.26     28.66      3.99     83.44
 REAL TIME  *       128.62 SEC
 DISK USED  *         2.47 GB      
 SF USED    *       683.76 MB      
 GA USED    *         0.00 MB       (max)       0.00 MB       (current)
 **********************************************************************************************************************************
 SETTING CCSD(1)        =       -31.38378090  AU                              

 DO I                   =         2.00000000   

 Running procedure=I6S15D


 PROGRAM * RHF-SCF (OPEN SHELL)       Authors: W. Meyer, H.-J. Werner


 NUMBER OF ELECTRONS:       6+    4-    SPACE SYMMETRY=1    SPIN SYMMETRY: Triplet 
 CONVERGENCE THRESHOLDS:    1.00E-05 (Density)    1.00E-07 (Energy)
 MAX. NUMBER OF ITERATIONS:       60
 INTERPOLATION TYPE:            DIIS
 INTERPOLATION STEPS:              2 (START)      1 (STEP)
 LEVEL SHIFTS:                 -0.60 (CLOSED) -0.30 (OPEN) 

 Number of closed-shell orbitals:    4 (   1   1   1   0   1   0   0   0 )
 Number of open-shell orbitals:      2 (   2   0   0   0   0   0   0   0 )


 
 Extra symmetries of mos in symmetry 1:   1   1   2
 Orbital guess generated from atomic densities. Full valence occupancy:    4   1   1   1   1   1   1   0


 Molecular orbital dump at record        4202.2

 ITERATION    DDIFF          GRAD             ENERGY        2-EL.EN.            DIPOLE MOMENTS         DIIS   ORB.
    1      0.000D+00      0.000D+00       -30.86364771     35.347234    0.00000    0.00000    0.00000    0    start
    2      0.000D+00      0.357D-02       -30.89072262     36.107413    0.00000    0.00000    0.00000    1    diag,B
    3      0.127D-01      0.176D-02       -30.90120319     36.492425    0.00000    0.00000    0.00000    2    diag,B
    4      0.342D-02      0.944D-03       -30.90492312     36.732113    0.00000    0.00000    0.00000    3    diag,B
    5      0.651D-02      0.201D-03       -30.90504064     36.765465    0.00000    0.00000    0.00000    4    diag,B
    6      0.171D-02      0.332D-04       -30.90504318     36.767226    0.00000    0.00000    0.00000    5    diag,B
    7      0.407D-03      0.812D-05       -30.90504341     36.766924    0.00000    0.00000    0.00000    6    fixocc
    8      0.177D-03      0.330D-05       -30.90504346     36.766737    0.00000    0.00000    0.00000    7    diag,B
    9      0.307D-04      0.107D-05       -30.90504347     36.766635    0.00000    0.00000    0.00000    8    diag,B
   10      0.648D-05      0.436D-06       -30.90504347     36.766633    0.00000    0.00000    0.00000    0    orth

 Final alpha occupancy:   3   1   1   0   1   0   0   0
 Final beta  occupancy:   1   1   1   0   1   0   0   0

 !RHF STATE 1.1 Energy                -30.905043467322
 Nuclear energy                         0.00000000
 One-electron energy                  -49.28835994
 Two-electron energy                   18.38331647
 Virial quotient                       -3.75214708
 !RHF STATE 1.1 Dipole moment           0.00000000     0.00000000     0.00000000
 Dipole moment /Debye                   0.00000000     0.00000000     0.00000000

 ELECTRON ORBITALS
 =================


   Orb  Occ    Energy  Couls-En    Coefficients

                                   1 1s      1 1s      1 1s      1 1s      1 1s      1 1s      1 1s      1 1s      1 1s      1 1s   
                                   1 1s      1 1s      1 1s      1 1s      1 1s      1 1s      1 1s      1 1s      1 1s      1 1s   
                                   1 1s      1 1s      1 1s      1 1s      1 1s      1 1s      1 1s      1 1s      1 1s      1 1s   
                                   1 1s      1 1s      1 3d0     1 3d2+    1 3d0     1 3d2+    1 3d0     1 3d2+    1 3d0     1 3d2+ 
                                   1 3d0     1 3d2+    1 3d0     1 3d2+    1 3d0     1 3d2+    1 3d0     1 3d2+    1 3d0     1 3d2+ 
                                   1 3d0     1 3d2+    1 3d0     1 3d2+    1 3d0     1 3d2+    1 3d0     1 3d2+    1 3d0     1 3d2+ 
                                   1 3d0     1 3d2+    1 3d0     1 3d2+    1 5g0     1 5g4+    1 5g2+    1 5g0     1 5g4+    1 5g2+ 
                                   1 5g0     1 5g4+    1 5g2+    1 5g0     1 5g4+    1 5g2+ 

   1.1   2    -2.0551   -8.0847 -0.000000  0.000000 -0.000000  0.000000 -0.000000  0.000000 -0.000000  0.000000 -0.000000  0.000000
                                -0.000001  0.000002 -0.000004  0.000010 -0.000022  0.000048 -0.000110  0.000262 -0.000637  0.003015
                                -0.027250 -1.190945 -0.483207 -0.785986  0.125191  0.854021  0.434970  0.015290 -0.004979  0.000820
                                 0.570929  1.278825 -0.000000 -0.000000  0.000000  0.000000 -0.000000 -0.000000  0.000001  0.000000
                                -0.000002 -0.000000  0.000005  0.000000 -0.000014 -0.000000  0.000029  0.000000 -0.000062 -0.000001
                                 0.000101  0.000001 -0.000395 -0.000004  0.002639  0.000021 -0.005891 -0.000048 -0.006514 -0.000031
                                -0.001670  0.000025 -0.000720  0.000002  0.000034  0.000000 -0.000000 -0.000175 -0.000000  0.000001
                                 0.000606  0.000000 -0.000003  0.001289  0.000000 -0.000008

   2.1   +    -0.3797   -3.0671 -0.000000  0.000000 -0.000000  0.000000 -0.000000  0.000000 -0.000000  0.000000 -0.000000  0.000000
                                -0.000000  0.000001 -0.000002  0.000004 -0.000010  0.000021 -0.000048  0.000111 -0.000278  0.000815
                                -0.001403  0.330127  0.193323  0.322359 -0.071877 -0.433197 -0.515993  0.695497  0.627230  0.014670
                                -0.124389 -0.447198 -0.000000 -0.000000  0.000000  0.000000 -0.000000 -0.000000  0.000000  0.000000
                                -0.000001 -0.000000  0.000002  0.000000 -0.000006 -0.000000  0.000012  0.000000 -0.000028 -0.000001
                                 0.000050  0.000002 -0.000163  0.000002  0.000753 -0.000053 -0.000916  0.000104 -0.000857  0.000310
                                -0.018672  0.000171 -0.012775 -0.000025  0.000064  0.000000 -0.000000 -0.000445 -0.000000  0.000003
                                 0.002345  0.000000 -0.000018  0.009828  0.000000 -0.000068

   3.1   +    -0.4443   -4.0206  0.000000 -0.000000  0.000000 -0.000000  0.000000 -0.000000  0.000000 -0.000000  0.000000 -0.000000
                                 0.000000 -0.000000  0.000001 -0.000001  0.000003 -0.000006  0.000015 -0.000034  0.000083 -0.000311
                                 0.001811  0.023603  0.009484 -0.001050  0.001996 -0.011099 -0.004121  0.026948  0.006926  0.000544
                                -0.015549 -0.017151 -0.000000  0.000000  0.000000 -0.000000 -0.000002  0.000000  0.000008 -0.000000
                                -0.000026  0.000000  0.000078 -0.000000 -0.000201  0.000001  0.000554 -0.000003 -0.000919  0.000005
                                 0.002427 -0.000013  0.004538 -0.000024 -0.087150  0.000453  0.164432 -0.000854  0.466049 -0.002419
                                 0.483420 -0.002527  0.105243 -0.000557  0.000017 -0.000000 -0.000000 -0.000126  0.000000 -0.000000
                                 0.000879 -0.000000  0.000001  0.001652 -0.000000 -0.000000

   4.1   0    -0.1596   -3.3895  0.000000 -0.000000  0.000000 -0.000000  0.000000 -0.000000  0.000000 -0.000000  0.000000 -0.000000
                                 0.000000 -0.000000  0.000000 -0.000000  0.000000 -0.000000  0.000000 -0.000001  0.000002 -0.000007
                                 0.000043  0.000436  0.000135 -0.000133  0.000081 -0.000065  0.000187  0.000269 -0.000398 -0.000200
                                -0.000320 -0.000234 -0.000000 -0.000000  0.000000  0.000000 -0.000000 -0.000001  0.000000  0.000005
                                -0.000000 -0.000018  0.000000  0.000053 -0.000001 -0.000136  0.000002  0.000387 -0.000003 -0.000616
                                 0.000009  0.001687  0.000022  0.004228 -0.000369 -0.070544  0.000679  0.129704  0.001877  0.358730
                                 0.002349  0.450758  0.001695  0.324490  0.000000 -0.000000 -0.000086 -0.000003  0.000001  0.000612
                                 0.000021 -0.000009 -0.003728  0.000042 -0.000056 -0.012955

   5.1   0    -0.0611   -1.3364 -0.000000  0.000000 -0.000000  0.000000 -0.000000  0.000000 -0.000000  0.000001 -0.000002  0.000004
                                -0.000010  0.000026 -0.000063  0.000147 -0.000332  0.000716 -0.001629  0.003784 -0.009275  0.034887
                                -0.204194 -2.584438 -0.870648  0.156600 -0.246003  0.519285 -0.101561  0.636213 -3.065599  2.771764
                                 1.732989  1.742314  0.000000  0.000000 -0.000000 -0.000000  0.000000  0.000000 -0.000001 -0.000000
                                 0.000003  0.000000 -0.000009 -0.000000  0.000024  0.000000 -0.000054 -0.000001  0.000111  0.000001
                                -0.000211 -0.000002  0.000404  0.000005 -0.000771 -0.000017  0.001125  0.000027 -0.002709  0.000013
                                 0.015278  0.000225 -0.017846 -0.000077 -0.000021 -0.000000  0.000000  0.000148  0.000000 -0.000001
                                -0.000831 -0.000000  0.000005 -0.003513 -0.000000  0.000020

                                   1 2px     1 2px     1 2px     1 2px     1 2px     1 2px     1 2px     1 2px     1 2px     1 2px  
                                   1 2px     1 2px     1 2px     1 2px     1 2px     1 2px     1 2px     1 2px     1 2px     1 2px  
                                   1 2px     1 2px     1 2px     1 2px     1 2px     1 4f1+    1 4f3+    1 4f1+    1 4f3+    1 4f1+ 
                                   1 4f3+    1 4f1+    1 4f3+    1 4f1+    1 4f3+    1 4f1+    1 4f3+    1 4f1+    1 4f3+    1 4f1+ 
                                   1 4f3+    1 4f1+    1 4f3+    1 4f1+    1 4f3+    1 4f1+    1 4f3+    1 4f1+    1 4f3+    1 4f1+ 
                                   1 4f3+    1 6h1+    1 6h3+    1 6h5+ 

   1.2   2    -1.2670   -6.4298  0.000000 -0.000000  0.000000 -0.000000  0.000000 -0.000000  0.000000 -0.000002  0.000006 -0.000017
                                 0.000048 -0.000129  0.000361 -0.000975  0.004718 -0.031640 -0.166867 -0.305768  0.203372  0.586407
                                 0.393540  0.054296 -0.007757  0.001966  0.221753  0.000000  0.000000 -0.000001 -0.000000  0.000004
                                 0.000000 -0.000025 -0.000000  0.000475  0.000004  0.000771  0.000006 -0.000132  0.000000 -0.006101
                                -0.000040 -0.005888 -0.000010 -0.000923  0.000008 -0.000045 -0.000001 -0.000710 -0.000006 -0.000234
                                -0.000003 -0.000408  0.000003 -0.000000

   2.2   0    -0.1337   -2.1557 -0.000000  0.000000 -0.000000  0.000000 -0.000000  0.000000 -0.000000  0.000000 -0.000001  0.000003
                                -0.000009  0.000024 -0.000071  0.000193 -0.001122  0.008367  0.052047  0.085250 -0.065660 -0.184172
                                -0.199985  0.150954  0.563893  0.433399 -0.064796 -0.000000 -0.000000  0.000001  0.000000 -0.000003
                                -0.000000  0.000016  0.000000 -0.000303 -0.000002 -0.000652 -0.000004 -0.000449 -0.000002 -0.000044
                                 0.000024 -0.007151  0.000036 -0.019754 -0.000060 -0.013430 -0.000094  0.000442  0.000003  0.000933
                                 0.000003  0.000208 -0.000001  0.000000

   3.2   0    -0.0221   -1.3711 -0.000000  0.000000 -0.000000  0.000000 -0.000000  0.000001 -0.000003  0.000012 -0.000041  0.000122
                                -0.000338  0.000876 -0.002196  0.005701 -0.016164  0.064950  0.380366 -0.055376  0.087437 -0.354574
                                 0.148931 -0.619118  2.339226 -1.969530 -0.372755 -0.000000  0.000000  0.000000 -0.000000 -0.000002
                                 0.000000  0.000010 -0.000000 -0.000195  0.000006 -0.000454  0.000013 -0.000358  0.000011 -0.000456
                                 0.000010 -0.007037  0.000043 -0.020020 -0.000106 -0.021520  0.000176  0.000284 -0.000009  0.000732
                                -0.000018  0.000158 -0.000001  0.000000

                                   1 2py     1 2py     1 2py     1 2py     1 2py     1 2py     1 2py     1 2py     1 2py     1 2py  
                                   1 2py     1 2py     1 2py     1 2py     1 2py     1 2py     1 2py     1 2py     1 2py     1 2py  
                                   1 2py     1 2py     1 2py     1 2py     1 2py     1 4f1-    1 4f3-    1 4f1-    1 4f3-    1 4f1- 
                                   1 4f3-    1 4f1-    1 4f3-    1 4f1-    1 4f3-    1 4f1-    1 4f3-    1 4f1-    1 4f3-    1 4f1- 
                                   1 4f3-    1 4f1-    1 4f3-    1 4f1-    1 4f3-    1 4f1-    1 4f3-    1 4f1-    1 4f3-    1 4f1- 
                                   1 4f3-    1 6h1-    1 6h3-    1 6h5- 

   1.3   2    -1.2671   -6.4299  0.000000 -0.000000  0.000000 -0.000000  0.000000 -0.000000  0.000000 -0.000002  0.000006 -0.000017
                                 0.000048 -0.000129  0.000361 -0.000976  0.004720 -0.031649 -0.166917 -0.305764  0.203344  0.586507
                                 0.393525  0.054201 -0.007749  0.001962  0.221804  0.000000  0.000000 -0.000001 -0.000000  0.000004
                                 0.000000 -0.000025 -0.000000  0.000475  0.000004  0.000769  0.000006 -0.000131  0.000000 -0.006089
                                -0.000040 -0.005832 -0.000011 -0.000900  0.000008 -0.000046 -0.000001 -0.000710 -0.000006 -0.000234
                                -0.000003 -0.000405  0.000003 -0.000000

   2.3   0    -0.1337   -2.1556 -0.000000  0.000000 -0.000000  0.000000 -0.000000  0.000000 -0.000000  0.000000 -0.000001  0.000003
                                -0.000009  0.000024 -0.000070  0.000193 -0.001121  0.008360  0.052005  0.085212 -0.065628 -0.184050
                                -0.200003  0.150809  0.564057  0.433359 -0.064749 -0.000000 -0.000000  0.000001  0.000000 -0.000003
                                -0.000000  0.000016  0.000000 -0.000303 -0.000002 -0.000651 -0.000004 -0.000447 -0.000002 -0.000011
                                 0.000024 -0.007024  0.000036 -0.019622 -0.000061 -0.013409 -0.000094  0.000442  0.000003  0.000927
                                 0.000003  0.000207 -0.000001  0.000000

   3.3   0    -0.0221   -1.3712 -0.000000  0.000000 -0.000000  0.000000 -0.000000  0.000001 -0.000003  0.000012 -0.000041  0.000122
                                -0.000338  0.000876 -0.002195  0.005699 -0.016160  0.064932  0.380259 -0.055358  0.087416 -0.354471
                                 0.148798 -0.618977  2.339196 -1.969523 -0.372651 -0.000000  0.000000  0.000000 -0.000000 -0.000002
                                 0.000000  0.000010 -0.000000 -0.000184  0.000006 -0.000434  0.000013 -0.000341  0.000011 -0.000437
                                 0.000010 -0.006905  0.000042 -0.019949 -0.000107 -0.021066  0.000173  0.000269 -0.000009  0.000702
                                -0.000017  0.000157 -0.000001  0.000000

                                   1 3d2-    1 3d2-    1 3d2-    1 3d2-    1 3d2-    1 3d2-    1 3d2-    1 3d2-    1 3d2-    1 3d2- 
                                   1 3d2-    1 3d2-    1 3d2-    1 3d2-    1 3d2-    1 3d2-    1 5g2-    1 5g4-    1 5g2-    1 5g4- 
                                   1 5g2-    1 5g4-    1 5g2-    1 5g4- 

   1.4   0    -0.1596   -3.3895 -0.000000  0.000000 -0.000001  0.000005 -0.000018  0.000053 -0.000136  0.000387 -0.000616  0.001687
                                 0.004228 -0.070545  0.129706  0.358734  0.450764  0.324496 -0.000086 -0.000000  0.000612  0.000001
                                -0.003728 -0.000009 -0.012955 -0.000056

   2.4   0     0.0255   -1.9726 -0.000000  0.000002 -0.000010  0.000041 -0.000141  0.000414 -0.001060  0.002371 -0.004986  0.009030
                                -0.022199  0.087528 -0.160108 -0.157369 -0.720153  1.214014  0.000056  0.000000 -0.000397 -0.000003
                                 0.002460  0.000014  0.003359 -0.000028

                                   1 2pz     1 2pz     1 2pz     1 2pz     1 2pz     1 2pz     1 2pz     1 2pz     1 2pz     1 2pz  
                                   1 2pz     1 2pz     1 2pz     1 2pz     1 2pz     1 2pz     1 2pz     1 2pz     1 2pz     1 2pz  
                                   1 2pz     1 2pz     1 2pz     1 2pz     1 2pz     1 4f0     1 4f2+    1 4f0     1 4f2+    1 4f0  
                                   1 4f2+    1 4f0     1 4f2+    1 4f0     1 4f2+    1 4f0     1 4f2+    1 4f0     1 4f2+    1 4f0  
                                   1 4f2+    1 4f0     1 4f2+    1 4f0     1 4f2+    1 4f0     1 4f2+    1 4f0     1 4f2+    1 4f0  
                                   1 4f2+    1 6h2+    1 6h4+    1 6h0  

   1.5   2    -1.2596   -6.4168  0.000000 -0.000000  0.000000 -0.000000  0.000000 -0.000000  0.000000 -0.000002  0.000005 -0.000016
                                 0.000045 -0.000120  0.000339 -0.000917  0.004553 -0.030977 -0.163401 -0.305985  0.205570  0.578741
                                 0.395097  0.061233 -0.008511  0.002259  0.218175  0.000000  0.000000 -0.000000 -0.000000  0.000001
                                 0.000000 -0.000005 -0.000000  0.000093  0.000005  0.000089  0.000008  0.000004 -0.000000 -0.000608
                                -0.000059  0.005250 -0.000057  0.002725 -0.000008 -0.000148 -0.000000 -0.000130 -0.000007 -0.000015
                                -0.000003  0.000004 -0.000000 -0.000558

   2.5   0    -0.1302   -2.1527 -0.000000  0.000000 -0.000000  0.000000 -0.000000  0.000000 -0.000000  0.000000 -0.000001  0.000003
                                -0.000009  0.000025 -0.000073  0.000200 -0.001157  0.008611  0.053705  0.087499 -0.067811 -0.190653
                                -0.196882  0.157833  0.543979  0.447684 -0.066738 -0.000000 -0.000000  0.000000  0.000000 -0.000001
                                -0.000000  0.000006  0.000000 -0.000125 -0.000003 -0.000127 -0.000006  0.000068 -0.000004  0.004313
                                 0.000003  0.013761 -0.000056  0.009914 -0.000178 -0.002392 -0.000134  0.000197  0.000004 -0.000343
                                 0.000008 -0.000002  0.000000  0.000237

   3.5   0    -0.0201   -1.3747 -0.000000  0.000000 -0.000000  0.000000 -0.000000  0.000001 -0.000004  0.000013 -0.000042  0.000125
                                -0.000347  0.000898 -0.002251  0.005843 -0.016567  0.066563  0.389818 -0.056626  0.089029 -0.364033
                                 0.159185 -0.634858  2.354311 -1.969094 -0.382016  0.000000 -0.000000 -0.000003  0.000000  0.000014
                                -0.000000 -0.000072  0.000000  0.001331 -0.000000  0.002698 -0.000001  0.002267 -0.000001  0.002383
                                -0.000003  0.015271 -0.000053  0.003158 -0.000190  0.054510 -0.000154 -0.001931  0.000001 -0.003873
                                 0.000003 -0.000001  0.000000  0.000176

                                   1 3d1+    1 3d1+    1 3d1+    1 3d1+    1 3d1+    1 3d1+    1 3d1+    1 3d1+    1 3d1+    1 3d1+ 
                                   1 3d1+    1 3d1+    1 3d1+    1 3d1+    1 3d1+    1 3d1+    1 5g1+    1 5g3+    1 5g1+    1 5g3+ 
                                   1 5g1+    1 5g3+    1 5g1+    1 5g3+ 

   1.6   0    -0.1425   -3.3145 -0.000000  0.000000 -0.000001  0.000006 -0.000019  0.000057 -0.000147  0.000410 -0.000669  0.001776
                                 0.003831 -0.067998  0.125637  0.346875  0.432783  0.363102 -0.000015 -0.000001  0.000109  0.000004
                                -0.000650 -0.000024 -0.004792 -0.000097

   2.6   0     0.0324   -2.0088 -0.000000  0.000002 -0.000011  0.000044 -0.000149  0.000437 -0.001119  0.002506 -0.005266  0.009548
                                -0.023321  0.090990 -0.166683 -0.155812 -0.751122  1.208688  0.000034  0.000000 -0.000219 -0.000003
                                 0.001119  0.000020 -0.002192  0.000015

                                   1 3d1-    1 3d1-    1 3d1-    1 3d1-    1 3d1-    1 3d1-    1 3d1-    1 3d1-    1 3d1-    1 3d1- 
                                   1 3d1-    1 3d1-    1 3d1-    1 3d1-    1 3d1-    1 3d1-    1 5g1-    1 5g3-    1 5g1-    1 5g3- 
                                   1 5g1-    1 5g3-    1 5g1-    1 5g3- 

   1.7   0    -0.1427   -3.3154 -0.000000  0.000000 -0.000001  0.000006 -0.000019  0.000057 -0.000147  0.000410 -0.000668  0.001775
                                 0.003836 -0.068033  0.125694  0.347029  0.433021  0.362605 -0.000015 -0.000001  0.000108  0.000004
                                -0.000641 -0.000024 -0.004778 -0.000097

   2.7   0     0.0323   -2.0083 -0.000000  0.000002 -0.000011  0.000044 -0.000149  0.000437 -0.001119  0.002505 -0.005263  0.009542
                                -0.023307  0.090946 -0.166600 -0.155831 -0.750731  1.208768  0.000034  0.000000 -0.000219 -0.000003
                                 0.001119  0.000020 -0.002233  0.000015

                                   1 4f2-    1 4f2-    1 4f2-    1 4f2-    1 4f2-    1 4f2-    1 4f2-    1 4f2-    1 4f2-    1 4f2- 
                                   1 4f2-    1 4f2-    1 4f2-    1 6h4-    1 6h2- 

   1.8   0     0.0182   -1.3582  0.000009 -0.000059  0.000280 -0.001481  0.027562  0.054420  0.043864 -0.026611  0.090839 -0.100423
                                 1.044269 -0.040295 -0.070224 -0.000001 -0.000094

   2.8   0     0.2154   -1.7257 -0.000031  0.000203 -0.000966  0.005142 -0.095921 -0.186823 -0.146327  0.166689 -0.128429  1.335671
                                -0.785283  0.140520  0.230832 -0.000005 -0.000453

 HOMO      3.1    -0.444333 =     -12.0909eV
 LUMO      4.1    -0.159637 =      -4.3439eV
 LUMO-HOMO         0.284696 =       7.7470eV


 **********************************************************************************************************************************
 DATASETS  * FILE   NREC   LENGTH (MB)   RECORD NAMES
              1      19       20.70       500      610      700      900      950      970     1000      129      960     1100   
                                          VAR    BASINP    GEOM    SYMINP    ZMAT    AOBASIS   BASIS     P2S    ABASIS      S 
                                         1400     1410     1420     1200     1210     1080     1600     1650     1700   
                                           T        V       ECP      H0       H01     AOSYM     SMH    MOLCAS    OPER   

              2       5        5.86       200      700     1000      520     4202   
                                        OPTIONS   GEOM     BASIS   MCVARS     RHF  

 PROGRAMS   *        TOTAL       RHF  RCCSD(T)       RHF       INT
 CPU TIMES  *       119.15      2.89     28.66      3.99     83.44
 REAL TIME  *       132.82 SEC
 DISK USED  *         2.47 GB      
 SF USED    *       683.76 MB      
 GA USED    *         0.00 MB       (max)       0.00 MB       (current)
 **********************************************************************************************************************************
 SETTING SCF(2)         =       -30.90504347  AU                              
 SETTING _CC_NORM_MAX   =         2.00000000                                  


 PROGRAM * CCSD (Restricted open-shell coupled cluster)     Authors: C. Hampel, H.-J. Werner, 1991, M. Deegan, P.J. Knowles, 1992


 Input parameters for THRESH:

 TWOINT =    1.00D-12
 ENERGY =    1.00D-05
 COEFF  =    0.001000

 Convergence thresholds:  THRVAR = 1.00D-06  THRDEN = 1.00D-05

 CCSD(T)     terms to be evaluated (factor= 1.000)


 Number of closed-shell orbitals:   4 (   1   1   1   0   1   0   0   0 )
 Number of active  orbitals:        2 (   2   0   0   0   0   0   0   0 )
 Number of external orbitals:     319 (  73  53  53  24  53  24  24  15 )

 Memory could be reduced to 55.46 Mwords without degradation in triples

 Number of N-1 electron functions:              10
 Number of N-2 electron functions:              45
 Number of singly external CSFs:               618
 Number of doubly external CSFs:            474840
 Total number of CSFs:                      475458

 Molecular orbitals read from record     4202.2  Type=RHF/CANONICAL (state 1.1)

 Integral transformation finished. Total CPU:   1.25 sec, npass=  1  Memory used:   7.53 MW

 Starting RMP2 calculation

 Wavefunction is spin-projected

 ITER.      SQ.NORM     CORR.ENERGY   TOTAL ENERGY   ENERGY CHANGE        DEN1      VAR(S)    VAR(P)  DIIS     TIME
   1      1.07407495    -0.24923689   -31.15428036    -0.24923689    -0.00084089  0.59D-05  0.36D-03  1  1     1.30
   2      1.07494291    -0.25014238   -31.15518585    -0.00090549    -0.00000165  0.54D-08  0.12D-05  2  2     1.33
   3      1.07497629    -0.25015770   -31.15520116    -0.00001531    -0.00000001  0.19D-10  0.70D-08  3  3     1.34
   4      1.07497704    -0.25015762   -31.15520108     0.00000008    -0.00000000  0.29D-12  0.25D-10  4  4     1.37

 Norm of t1 vector:      0.03227052      S-energy:    -0.00195953      T1 diagnostic:  0.00008823
 Norm of t2 vector:      0.27191111      P-energy:    -0.24819809
                                         Alpha-Beta:  -0.18517028
                                         Alpha-Alpha: -0.04170103
                                         Beta-Beta:   -0.02132678

 Spin contamination <S**2-Sz**2-Sz>     0.00000000
  Reference energy                    -30.905043467322
  RHF-RMP2 correlation energy          -0.250157617272
 !RHF-RMP2 energy                     -31.155201084594
 (NB above energy spin projected)

 Starting RCCSD calculation

 ITER.      SQ.NORM     CORR.ENERGY   TOTAL ENERGY   ENERGY CHANGE        DEN1      VAR(S)    VAR(P)  DIIS     TIME
   1      1.07689304    -0.25407335   -31.15911682    -0.25407335    -0.00430948  0.75D-03  0.99D-03  1  1     2.79
   2      1.08164994    -0.25864434   -31.16368781    -0.00457100    -0.00017096  0.11D-03  0.38D-04  2  2     4.21
   3      1.08302079    -0.25915509   -31.16419856    -0.00051074    -0.00001902  0.23D-04  0.26D-05  3  3     5.59
   4      1.08362702    -0.25929248   -31.16433594    -0.00013739    -0.00000183  0.24D-05  0.28D-06  4  4     7.01
   5      1.08380705    -0.25932090   -31.16436436    -0.00002842    -0.00000019  0.23D-06  0.44D-07  5  5     8.41
   6      1.08385945    -0.25932692   -31.16437039    -0.00000602    -0.00000002  0.18D-07  0.91D-08  6  6     9.83

 Norm of t1 vector:      0.06374403      S-energy:    -0.00197765      T1 diagnostic:  0.01229652
                                                                       D1 diagnostic:  0.03635219
 Norm of t2 vector:      0.28248213      P-energy:    -0.25734927
                                         Alpha-Beta:  -0.19700568
                                         Alpha-Alpha: -0.04050166
                                         Beta-Beta:   -0.01984193

 Spin contamination <S**2-Sz**2-Sz>     0.00000000

 Memory could be reduced to 55.81 Mwords without degradation in triples
 

 RESULTS
 =======

  Reference energy                    -30.905043467322
  RCCSD singles energy                 -0.001977651052
  RCCSD pair energy                    -0.257349270105
  RCCSD correlation energy             -0.259326921156
  Triples (T) contribution             -0.009004244405
  Total correlation energy             -0.268331165561
 
  RHF-RCCSD energy                    -31.164370388479
  RHF-RCCSD[T] energy                 -31.173424994519
  RHF-RCCSD-T energy                  -31.173349707231
 !RHF-RCCSD(T) energy                 -31.173374632883

 Program statistics:

 Available memory in ccsd:               511999552
 Min. memory needed in ccsd:               1750700
 Max. memory used in ccsd:                 2275625
 Max. memory used in cckext:               2007864 ( 6 integral passes)
 Max. memory used in cckint:               7529537 ( 1 integral passes)



 **********************************************************************************************************************************
 DATASETS  * FILE   NREC   LENGTH (MB)   RECORD NAMES
              1      19       20.70       500      610      700      900      950      970     1000      129      960     1100   
                                          VAR    BASINP    GEOM    SYMINP    ZMAT    AOBASIS   BASIS     P2S    ABASIS      S 
                                         1400     1410     1420     1200     1210     1080     1600     1650     1700   
                                           T        V       ECP      H0       H01     AOSYM     SMH    MOLCAS    OPER   

              2       5        5.86       200      700     1000      520     4202   
                                        OPTIONS   GEOM     BASIS   MCVARS     RHF  

 PROGRAMS   *        TOTAL  RCCSD(T)       RHF  RCCSD(T)       RHF       INT
 CPU TIMES  *       140.38     21.23      2.89     28.66      3.99     83.44
 REAL TIME  *       159.99 SEC
 DISK USED  *         2.47 GB      
 SF USED    *       683.76 MB      
 GA USED    *         0.00 MB       (max)       0.00 MB       (current)
 **********************************************************************************************************************************
 SETTING CCSD(2)        =       -31.17337463  AU                              

 DO I                   =         3.00000000   

 Running procedure=I5D


 PROGRAM * RHF-SCF (OPEN SHELL)       Authors: W. Meyer, H.-J. Werner


 NUMBER OF ELECTRONS:       5+    4-    SPACE SYMMETRY=1    SPIN SYMMETRY: Doublet 
 CONVERGENCE THRESHOLDS:    1.00E-05 (Density)    1.00E-07 (Energy)
 MAX. NUMBER OF ITERATIONS:       60
 INTERPOLATION TYPE:            DIIS
 INTERPOLATION STEPS:              2 (START)      1 (STEP)
 LEVEL SHIFTS:                 -0.60 (CLOSED) -0.30 (OPEN) 

 Number of closed-shell orbitals:    4 (   1   1   1   0   1   0   0   0 )
 Number of open-shell orbitals:      1 (   1   0   0   0   0   0   0   0 )


 
 Extra symmetries of mos in symmetry 1:   1   2
 Orbital guess generated from atomic densities. Full valence occupancy:    4   1   1   1   1   1   1   0


 Molecular orbital dump at record        4202.2

 ITERATION    DDIFF          GRAD             ENERGY        2-EL.EN.            DIPOLE MOMENTS         DIIS   ORB.
    1      0.000D+00      0.000D+00       -30.46877386     31.165777    0.00000    0.00000    0.00000    0    start
    2      0.000D+00      0.512D-02       -30.50947856     31.917906    0.00000    0.00000    0.00000    1    diag,B
    3      0.102D-01      0.247D-02       -30.52446282     32.265314    0.00000    0.00000    0.00000    2    diag,B
    4      0.218D-02      0.120D-02       -30.52848145     32.420415    0.00000    0.00000    0.00000    3    diag,B
    5      0.197D-02      0.228D-03       -30.52857461     32.437184    0.00000    0.00000    0.00000    4    diag,B
    6      0.155D-02      0.385D-04       -30.52857776     32.438700    0.00000    0.00000    0.00000    5    diag,B
    7      0.623D-04      0.170D-04       -30.52857927     32.438644    0.00000    0.00000    0.00000    6    fixocc
    8      0.105D-03      0.141D-04       -30.52858235     32.438592    0.00000    0.00000    0.00000    7    diag,B
    9      0.981D-04      0.760D-05       -30.52858349     32.438225    0.00000    0.00000    0.00000    8    diag,B
   10      0.955D-04      0.102D-05       -30.52858350     32.438236    0.00000    0.00000    0.00000    9    orth
   11      0.211D-04      0.304D-06       -30.52858350     32.438233    0.00000    0.00000    0.00000    9    diag,B
   12      0.153D-05      0.203D-06       -30.52858350     32.438233    0.00000    0.00000    0.00000    0    orth

 Final alpha occupancy:   2   1   1   0   1   0   0   0
 Final beta  occupancy:   1   1   1   0   1   0   0   0

 !RHF STATE 1.1 Energy                -30.528583500013
 Nuclear energy                         0.00000000
 One-electron energy                  -46.74770005
 Two-electron energy                   16.21911655
 Virial quotient                       -3.77662868
 !RHF STATE 1.1 Dipole moment           0.00000000     0.00000000     0.00000000
 Dipole moment /Debye                   0.00000000     0.00000000     0.00000000

 ELECTRON ORBITALS
 =================


   Orb  Occ    Energy  Couls-En    Coefficients

                                   1 1s      1 1s      1 1s      1 1s      1 1s      1 1s      1 1s      1 1s      1 1s      1 1s   
                                   1 1s      1 1s      1 1s      1 1s      1 1s      1 1s      1 1s      1 1s      1 1s      1 1s   
                                   1 1s      1 1s      1 1s      1 1s      1 1s      1 1s      1 1s      1 1s      1 1s      1 1s   
                                   1 1s      1 1s      1 3d0     1 3d2+    1 3d0     1 3d2+    1 3d0     1 3d2+    1 3d0     1 3d2+ 
                                   1 3d0     1 3d2+    1 3d0     1 3d2+    1 3d0     1 3d2+    1 3d0     1 3d2+    1 3d0     1 3d2+ 
                                   1 3d0     1 3d2+    1 3d0     1 3d2+    1 3d0     1 3d2+    1 3d0     1 3d2+    1 3d0     1 3d2+ 
                                   1 3d0     1 3d2+    1 3d0     1 3d2+    1 5g0     1 5g4+    1 5g2+    1 5g0     1 5g4+    1 5g2+ 
                                   1 5g0     1 5g4+    1 5g2+    1 5g0     1 5g4+    1 5g2+ 

   1.1   2    -2.2966   -8.3246 -0.000000  0.000000 -0.000000  0.000000 -0.000000  0.000000 -0.000000  0.000000 -0.000000  0.000000
                                -0.000001  0.000002 -0.000005  0.000013 -0.000028  0.000061 -0.000140  0.000331 -0.000806  0.003653
                                -0.030981 -1.234330 -0.496689 -0.778566  0.119691  0.851617  0.440221  0.012502 -0.003008  0.000506
                                 0.601181  1.305176 -0.000000 -0.000000  0.000000  0.000000 -0.000000 -0.000000  0.000001  0.000000
                                -0.000002 -0.000000  0.000005  0.000000 -0.000014 -0.000000  0.000029  0.000000 -0.000062 -0.000001
                                 0.000099  0.000001 -0.000415 -0.000004  0.002916  0.000020 -0.006558 -0.000048 -0.007418 -0.000023
                                -0.001888  0.000025 -0.000440 -0.000000  0.000039  0.000000 -0.000000 -0.000205 -0.000000  0.000001
                                 0.000750  0.000000 -0.000004  0.001285  0.000000 -0.000008

   2.1   +    -0.6737   -4.3534  0.000000 -0.000000  0.000000 -0.000000  0.000000 -0.000000  0.000000 -0.000000  0.000000 -0.000000
                                 0.000000 -0.000000  0.000001 -0.000002  0.000004 -0.000009  0.000021 -0.000049  0.000121 -0.000452
                                 0.002606  0.030274  0.011133 -0.004796  0.003528 -0.009677  0.000771  0.025674 -0.000202  0.000714
                                -0.020954 -0.019583 -0.000000  0.000000  0.000001 -0.000000 -0.000003  0.000000  0.000012 -0.000000
                                -0.000041  0.000000  0.000121 -0.000001 -0.000311  0.000002  0.000814 -0.000004 -0.001436  0.000007
                                 0.003466 -0.000018  0.003225 -0.000016 -0.090632  0.000460  0.172173 -0.000874  0.519629 -0.002636
                                 0.459597 -0.002338  0.043488 -0.000223  0.000015 -0.000000  0.000000 -0.000116  0.000000 -0.000000
                                 0.000878 -0.000000  0.000001  0.001203 -0.000000  0.000002

   3.1   0    -0.3736   -3.0427 -0.000000  0.000000 -0.000000  0.000000 -0.000000  0.000000 -0.000000  0.000000 -0.000000  0.000000
                                -0.000001  0.000001 -0.000004  0.000008 -0.000019  0.000040 -0.000091  0.000210 -0.000521  0.001732
                                -0.006796  0.258665  0.167937  0.323636 -0.078105 -0.408157 -0.523152  0.657224  0.658441  0.017047
                                -0.077395 -0.396639 -0.000000 -0.000000  0.000000  0.000000 -0.000000 -0.000000  0.000000  0.000000
                                -0.000001 -0.000000  0.000003  0.000000 -0.000008 -0.000000  0.000019  0.000001 -0.000040 -0.000001
                                 0.000080  0.000003 -0.000160  0.000005  0.000219 -0.000105  0.000144  0.000200  0.002440  0.000579
                                -0.016429  0.000493 -0.013502  0.000085  0.000065  0.000000 -0.000001 -0.000451 -0.000000  0.000004
                                 0.002359  0.000000 -0.000021  0.008268  0.000000 -0.000065

   4.1   0    -0.3704   -3.8223  0.000000 -0.000000  0.000000 -0.000000  0.000000 -0.000000  0.000000 -0.000000  0.000000 -0.000000
                                 0.000000 -0.000000  0.000000 -0.000000  0.000000 -0.000000  0.000000 -0.000001  0.000002 -0.000006
                                 0.000033  0.000029 -0.000071 -0.000391  0.000123  0.000326  0.000635 -0.000537 -0.000778 -0.000013
                                -0.000128  0.000227 -0.000000 -0.000000  0.000000  0.000000 -0.000000 -0.000001  0.000000  0.000005
                                -0.000000 -0.000019  0.000000  0.000056 -0.000001 -0.000144  0.000002  0.000416 -0.000003 -0.000652
                                 0.000009  0.001835  0.000025  0.004898 -0.000408 -0.080242  0.000751  0.147856  0.002109  0.415423
                                 0.002556  0.499877  0.000882  0.171238  0.000000 -0.000000 -0.000103 -0.000003  0.000002  0.000739
                                 0.000021 -0.000011 -0.004540  0.000032 -0.000049 -0.012533

                                   1 2px     1 2px     1 2px     1 2px     1 2px     1 2px     1 2px     1 2px     1 2px     1 2px  
                                   1 2px     1 2px     1 2px     1 2px     1 2px     1 2px     1 2px     1 2px     1 2px     1 2px  
                                   1 2px     1 2px     1 2px     1 2px     1 2px     1 4f1+    1 4f3+    1 4f1+    1 4f3+    1 4f1+ 
                                   1 4f3+    1 4f1+    1 4f3+    1 4f1+    1 4f3+    1 4f1+    1 4f3+    1 4f1+    1 4f3+    1 4f1+ 
                                   1 4f3+    1 4f1+    1 4f3+    1 4f1+    1 4f3+    1 4f1+    1 4f3+    1 4f1+    1 4f3+    1 4f1+ 
                                   1 4f3+    1 6h1+    1 6h3+    1 6h5+ 

   1.2   2    -1.5098   -6.6802  0.000000 -0.000000  0.000000 -0.000000  0.000000 -0.000000  0.000001 -0.000002  0.000006 -0.000019
                                 0.000054 -0.000145  0.000400 -0.001077  0.005010 -0.032834 -0.173957 -0.305022  0.202171  0.592131
                                 0.397045  0.041783 -0.007321  0.001554  0.228723  0.000000  0.000000 -0.000001 -0.000000  0.000006
                                 0.000000 -0.000031 -0.000000  0.000588  0.000003  0.000977  0.000004 -0.000066 -0.000002 -0.006860
                                -0.000039 -0.006157 -0.000007 -0.000538  0.000007 -0.000035 -0.000001 -0.000878 -0.000004 -0.000411
                                 0.000000 -0.000425  0.000003 -0.000000

   2.2   0    -0.2753   -2.4344 -0.000000  0.000000 -0.000000  0.000000 -0.000000  0.000000 -0.000000  0.000001 -0.000002  0.000005
                                -0.000014  0.000039 -0.000109  0.000293 -0.001465  0.010147  0.063443  0.092956 -0.071942 -0.207940
                                -0.228872  0.190559  0.762147  0.198755 -0.077141 -0.000000 -0.000000  0.000001  0.000000 -0.000003
                                -0.000000  0.000014  0.000000 -0.000264 -0.000003 -0.000587 -0.000005 -0.000376 -0.000003 -0.000174
                                 0.000022 -0.008772  0.000020 -0.023113 -0.000102 -0.009953 -0.000069  0.000385  0.000004  0.000870
                                 0.000004  0.000218 -0.000001  0.000000

   3.2   0    -0.1371   -1.4803 -0.000000  0.000000 -0.000000  0.000000 -0.000000  0.000000 -0.000001  0.000005 -0.000017  0.000052
[...]
                                 0.375085  0.021229 -0.002483  0.000354  0.246503 -0.000000 -0.000000  0.000000  0.000000 -0.000000
                                -0.000000  0.000000  0.000000 -0.000000 -0.000000 -0.000000 -0.000000 -0.000000 -0.000000  0.000000
                                 0.000000 -0.000000 -0.000000  0.000000  0.000000 -0.000000 -0.000000  0.000000  0.000000  0.000000
                                 0.000000 -0.000000  0.000000 -0.000000

   2.2   0    -0.4828   -2.8906 -0.000000  0.000000 -0.000000  0.000000 -0.000000  0.000000 -0.000000  0.000001 -0.000002  0.000006
                                -0.000018  0.000048 -0.000137  0.000370 -0.001875  0.013122  0.084917  0.118200 -0.091554 -0.289066
                                -0.303884  0.591890  0.617380  0.012891 -0.101501 -0.000000  0.000000  0.000000 -0.000000 -0.000000
                                 0.000000  0.000000 -0.000000 -0.000000  0.000000 -0.000000  0.000000 -0.000000  0.000000  0.000000
                                -0.000000 -0.000000  0.000000  0.000000 -0.000000  0.000000  0.000000  0.000000 -0.000000  0.000000
                                -0.000000  0.000000  0.000000  0.000000

   3.2   0    -0.2894   -2.1893 -0.000000  0.000000 -0.000000  0.000000 -0.000000  0.000000 -0.000000  0.000000 -0.000000  0.000000
                                -0.000000  0.000000 -0.000000  0.000000 -0.000000  0.000000  0.000000  0.000000 -0.000000 -0.000000
                                -0.000000  0.000000  0.000000 -0.000000 -0.000000 -0.000001 -0.000001  0.000008  0.000005 -0.000036
                                -0.000022  0.000203  0.000125 -0.003797 -0.002327 -0.005838 -0.003578 -0.001616 -0.000991  0.039311
                                 0.024092  0.108393  0.066431  0.415322  0.254537  0.461745  0.282988  0.005652  0.003464  0.001982
                                 0.001215  0.000000  0.000000 -0.000000

                                   1 2py     1 2py     1 2py     1 2py     1 2py     1 2py     1 2py     1 2py     1 2py     1 2py  
                                   1 2py     1 2py     1 2py     1 2py     1 2py     1 2py     1 2py     1 2py     1 2py     1 2py  
                                   1 2py     1 2py     1 2py     1 2py     1 2py     1 4f1-    1 4f3-    1 4f1-    1 4f3-    1 4f1- 
                                   1 4f3-    1 4f1-    1 4f3-    1 4f1-    1 4f3-    1 4f1-    1 4f3-    1 4f1-    1 4f3-    1 4f1- 
                                   1 4f3-    1 4f1-    1 4f3-    1 4f1-    1 4f3-    1 4f1-    1 4f3-    1 4f1-    1 4f3-    1 4f1- 
                                   1 4f3-    1 6h1-    1 6h3-    1 6h5- 

   1.3   2    -1.8583   -7.0530  0.000000 -0.000000  0.000000 -0.000000  0.000000 -0.000000  0.000001 -0.000002  0.000008 -0.000024
                                 0.000067 -0.000179  0.000487 -0.001302  0.005678 -0.035726 -0.191542 -0.307172  0.201312  0.628159
                                 0.375085  0.021229 -0.002483  0.000354  0.246503  0.000000  0.000000 -0.000000 -0.000000  0.000000
                                 0.000000 -0.000000 -0.000000  0.000000 -0.000000  0.000000 -0.000000  0.000000 -0.000000 -0.000000
                                 0.000000  0.000000 -0.000000 -0.000000  0.000000  0.000000 -0.000000 -0.000000  0.000000 -0.000000
                                 0.000000 -0.000000 -0.000000 -0.000000

   2.3   0    -0.4828   -2.8906 -0.000000  0.000000 -0.000000  0.000000 -0.000000  0.000000 -0.000000  0.000001 -0.000002  0.000006
                                -0.000018  0.000048 -0.000137  0.000370 -0.001875  0.013122  0.084917  0.118200 -0.091554 -0.289066
                                -0.303884  0.591890  0.617380  0.012891 -0.101501  0.000000 -0.000000  0.000000  0.000000 -0.000000
                                -0.000000  0.000000  0.000000 -0.000000 -0.000000 -0.000000 -0.000000 -0.000000 -0.000000 -0.000000
                                 0.000000 -0.000000  0.000000 -0.000000  0.000000 -0.000000  0.000000  0.000000  0.000000  0.000000
                                 0.000000 -0.000000 -0.000000  0.000000

   3.3   0    -0.2894   -2.1893 -0.000000  0.000000 -0.000000  0.000000 -0.000000  0.000000 -0.000000  0.000000 -0.000000  0.000000
                                 0.000000 -0.000000  0.000000 -0.000000  0.000000 -0.000000  0.000000  0.000000 -0.000000 -0.000000
                                -0.000000  0.000000 -0.000000 -0.000000 -0.000000  0.000001 -0.000001 -0.000008  0.000003  0.000039
                                -0.000016 -0.000221  0.000090  0.004127 -0.001674  0.006345 -0.002573  0.001757 -0.000712 -0.042726
                                 0.017326 -0.117812  0.047775 -0.451412  0.183054 -0.501869  0.203515 -0.006143  0.002491 -0.002155
                                 0.000874 -0.000000  0.000000 -0.000000

                                   1 3d2-    1 3d2-    1 3d2-    1 3d2-    1 3d2-    1 3d2-    1 3d2-    1 3d2-    1 3d2-    1 3d2- 
                                   1 3d2-    1 3d2-    1 3d2-    1 3d2-    1 3d2-    1 3d2-    1 5g2-    1 5g4-    1 5g2-    1 5g4- 
                                   1 5g2-    1 5g4-    1 5g2-    1 5g4- 

   1.4   0    -0.6567   -4.3094 -0.000000  0.000001 -0.000003  0.000012 -0.000040  0.000117 -0.000302  0.000791 -0.001395  0.003363
                                 0.003177 -0.088075  0.165514  0.506025  0.473468  0.051692  0.000000 -0.000000 -0.000000  0.000000
                                 0.000000 -0.000000 -0.000000  0.000000

   2.4   0    -0.3127   -2.1788  0.000000 -0.000000  0.000002 -0.000007  0.000026 -0.000076  0.000195 -0.000503  0.000919 -0.002193
                                -0.000658  0.045211 -0.088731 -0.307334 -0.247176  1.110839  0.000000 -0.000000  0.000000 -0.000000
                                -0.000000  0.000000 -0.000000  0.000000

                                   1 2pz     1 2pz     1 2pz     1 2pz     1 2pz     1 2pz     1 2pz     1 2pz     1 2pz     1 2pz  
                                   1 2pz     1 2pz     1 2pz     1 2pz     1 2pz     1 2pz     1 2pz     1 2pz     1 2pz     1 2pz  
                                   1 2pz     1 2pz     1 2pz     1 2pz     1 2pz     1 4f0     1 4f2+    1 4f0     1 4f2+    1 4f0  
                                   1 4f2+    1 4f0     1 4f2+    1 4f0     1 4f2+    1 4f0     1 4f2+    1 4f0     1 4f2+    1 4f0  
                                   1 4f2+    1 4f0     1 4f2+    1 4f0     1 4f2+    1 4f0     1 4f2+    1 4f0     1 4f2+    1 4f0  
                                   1 4f2+    1 6h2+    1 6h4+    1 6h0  

   1.5   2    -1.8583   -7.0530  0.000000 -0.000000  0.000000 -0.000000  0.000000 -0.000000  0.000001 -0.000002  0.000008 -0.000024
                                 0.000067 -0.000179  0.000487 -0.001302  0.005678 -0.035726 -0.191542 -0.307172  0.201312  0.628159
                                 0.375085  0.021229 -0.002483  0.000354  0.246503 -0.000000  0.000000  0.000000 -0.000000 -0.000000
                                 0.000000  0.000000  0.000000 -0.000000 -0.000000 -0.000000 -0.000000 -0.000000 -0.000000  0.000000
                                 0.000000 -0.000000 -0.000000  0.000000  0.000000 -0.000000 -0.000000  0.000000  0.000000  0.000000
                                 0.000000 -0.000000 -0.000000 -0.000000

   2.5   0    -0.4828   -2.8906 -0.000000  0.000000 -0.000000  0.000000 -0.000000  0.000000 -0.000000  0.000001 -0.000002  0.000006
                                -0.000018  0.000048 -0.000137  0.000370 -0.001875  0.013122  0.084917  0.118200 -0.091554 -0.289066
                                -0.303884  0.591890  0.617380  0.012891 -0.101501  0.000000 -0.000000 -0.000000  0.000000  0.000000
                                -0.000000 -0.000000  0.000000  0.000000 -0.000000  0.000000  0.000000  0.000000  0.000000 -0.000000
                                -0.000000 -0.000000  0.000000 -0.000000  0.000000 -0.000000  0.000000 -0.000000  0.000000 -0.000000
                                -0.000000 -0.000000 -0.000000  0.000000

   3.5   0    -0.2894   -2.1893 -0.000000  0.000000  0.000000 -0.000000  0.000000 -0.000000  0.000000 -0.000000  0.000000 -0.000000
                                 0.000000 -0.000000  0.000000  0.000000 -0.000000  0.000000  0.000000  0.000000 -0.000000 -0.000000
                                -0.000000  0.000000 -0.000000 -0.000000 -0.000000  0.000001 -0.000001 -0.000004  0.000008  0.000019
                                -0.000037 -0.000109  0.000212  0.002034 -0.003962  0.003126 -0.006091  0.000866 -0.001686 -0.021053
                                 0.041018 -0.058052  0.113103 -0.222431  0.433366 -0.247294  0.481806 -0.003027  0.005897 -0.001062
                                 0.002069  0.000000 -0.000000 -0.000000

                                   1 3d1+    1 3d1+    1 3d1+    1 3d1+    1 3d1+    1 3d1+    1 3d1+    1 3d1+    1 3d1+    1 3d1+ 
                                   1 3d1+    1 3d1+    1 3d1+    1 3d1+    1 3d1+    1 3d1+    1 5g1+    1 5g3+    1 5g1+    1 5g3+ 
                                   1 5g1+    1 5g3+    1 5g1+    1 5g3+ 

   1.6   0    -0.6567   -4.3094 -0.000000  0.000001 -0.000003  0.000012 -0.000040  0.000117 -0.000302  0.000791 -0.001395  0.003363
                                 0.003177 -0.088075  0.165514  0.506025  0.473468  0.051692  0.000000 -0.000000 -0.000000  0.000000
                                 0.000000 -0.000000 -0.000000  0.000000

   2.6   0    -0.3127   -2.1788  0.000000 -0.000000  0.000002 -0.000007  0.000026 -0.000076  0.000195 -0.000503  0.000919 -0.002193
                                -0.000658  0.045211 -0.088731 -0.307334 -0.247176  1.110839  0.000000 -0.000000 -0.000000 -0.000000
                                -0.000000  0.000000 -0.000000  0.000000

                                   1 3d1-    1 3d1-    1 3d1-    1 3d1-    1 3d1-    1 3d1-    1 3d1-    1 3d1-    1 3d1-    1 3d1- 
                                   1 3d1-    1 3d1-    1 3d1-    1 3d1-    1 3d1-    1 3d1-    1 5g1-    1 5g3-    1 5g1-    1 5g3- 
                                   1 5g1-    1 5g3-    1 5g1-    1 5g3- 

   1.7   0    -0.6567   -4.3094 -0.000000  0.000001 -0.000003  0.000012 -0.000040  0.000117 -0.000302  0.000791 -0.001395  0.003363
                                 0.003177 -0.088075  0.165514  0.506025  0.473468  0.051692  0.000000 -0.000000 -0.000000  0.000000
                                 0.000000 -0.000000 -0.000000  0.000000

   2.7   0    -0.3127   -2.1788  0.000000 -0.000000  0.000002 -0.000007  0.000026 -0.000076  0.000195 -0.000503  0.000919 -0.002193
                                -0.000658  0.045211 -0.088731 -0.307334 -0.247176  1.110839  0.000000 -0.000000 -0.000000 -0.000000
                                -0.000000  0.000000 -0.000000  0.000000

                                   1 4f2-    1 4f2-    1 4f2-    1 4f2-    1 4f2-    1 4f2-    1 4f2-    1 4f2-    1 4f2-    1 4f2- 
                                   1 4f2-    1 4f2-    1 4f2-    1 6h4-    1 6h2- 

   1.8   0    -0.2894   -2.1893 -0.000001  0.000009 -0.000042  0.000239 -0.004453 -0.006847 -0.001896  0.046106  0.127131  0.487115
                                 0.541563  0.006629  0.002325 -0.000000  0.000000

   2.8   0    -0.1534   -1.8441 -0.000009  0.000062 -0.000292  0.001575 -0.029403 -0.055116 -0.038560  0.099308  0.145520  0.929432
                                -1.101006  0.043217  0.060457 -0.000000  0.000000

 HOMO      1.5    -1.858332 =     -50.5678eV
 LUMO      2.1    -0.656706 =     -17.8699eV
 LUMO-HOMO         1.201626 =      32.6979eV


 **********************************************************************************************************************************
 DATASETS  * FILE   NREC   LENGTH (MB)   RECORD NAMES
              1      19       20.70       500      610      700      900      950      970     1000      129      960     1100   
                                          VAR    BASINP    GEOM    SYMINP    ZMAT    AOBASIS   BASIS     P2S    ABASIS      S 
                                         1400     1410     1420     1200     1210     1080     1600     1650     1700   
                                           T        V       ECP      H0       H01     AOSYM     SMH    MOLCAS    OPER   

              2       5        5.86       200      700     1000      520     4202   
                                        OPTIONS   GEOM     BASIS   MCVARS     RHF  

 PROGRAMS   *        TOTAL       RHF  RCCSD(T)       RHF  RCCSD(T)       RHF  RCCSD(T)       RHF       INT
 CPU TIMES  *       163.95      2.04     18.20      3.33     21.23      2.89     28.66      3.99     83.44
 REAL TIME  *       190.27 SEC
 DISK USED  *         2.47 GB      
 SF USED    *       683.76 MB      
 GA USED    *         0.00 MB       (max)       0.00 MB       (current)
 **********************************************************************************************************************************
 SETTING SCF(4)         =       -29.86376241  AU                              
 SETTING _CC_NORM_MAX   =         2.00000000                                  


 PROGRAM * CCSD (Restricted open-shell coupled cluster)     Authors: C. Hampel, H.-J. Werner, 1991, M. Deegan, P.J. Knowles, 1992


 Input parameters for THRESH:

 TWOINT =    1.00D-12
 ENERGY =    1.00D-05
 COEFF  =    0.001000

 Convergence thresholds:  THRVAR = 1.00D-06  THRDEN = 1.00D-05

 CCSD(T)     terms to be evaluated (factor= 1.000)


 Number of closed-shell orbitals:   4 (   1   1   1   0   1   0   0   0 )
 Number of external orbitals:     321 (  75  53  53  24  53  24  24  15 )

 Memory could be reduced to 46.10 Mwords without degradation in triples

 Number of N-1 electron functions:               8
 Number of N-2 electron functions:              28
 Number of singly external CSFs:               468
 Number of doubly external CSFs:            295482
 Total number of CSFs:                      295950

 Molecular orbitals read from record     4202.2  Type=RHF/CANONICAL (state 1.1)

 Integral transformation finished. Total CPU:   1.05 sec, npass=  1  Memory used:   5.74 MW

 Starting RMP2 calculation

 Wavefunction is spin-projected

 ITER.      SQ.NORM     CORR.ENERGY   TOTAL ENERGY   ENERGY CHANGE        DEN1      VAR(S)    VAR(P)  DIIS     TIME
   1      1.05022762    -0.20083476   -30.06459716    -0.20083476    -0.00050512  0.49D-17  0.16D-03  1  1     1.05
   2      1.05058622    -0.20137028   -30.06513269    -0.00053553    -0.00000017  0.15D-20  0.52D-07  2  2     1.06
   3      1.05059027    -0.20137378   -30.06513619    -0.00000350    -0.00000000  0.18D-23  0.12D-10  3  3     1.07

 Norm of t1 vector:      0.00000004      S-energy:    -0.00000000      T1 diagnostic:  0.00000001
 Norm of t2 vector:      0.22492281      P-energy:    -0.20137378
                                         Alpha-Beta:  -0.15845218
                                         Alpha-Alpha: -0.02146080
                                         Beta-Beta:   -0.02146080

 Spin contamination <S**2-Sz**2-Sz>     0.00000000
  Reference energy                    -29.863762408835
  RHF-RMP2 correlation energy          -0.201373781636
 !RHF-RMP2 energy                     -30.065136190470
 (NB above energy spin projected)

 Starting RCCSD calculation

 ITER.      SQ.NORM     CORR.ENERGY   TOTAL ENERGY   ENERGY CHANGE        DEN1      VAR(S)    VAR(P)  DIIS     TIME
   1      1.05427908    -0.20855654   -30.07231895    -0.20855654    -0.00342956  0.56D-04  0.73D-03  1  1     2.39
   2      1.05675097    -0.21226723   -30.07602964    -0.00371069    -0.00005439  0.24D-06  0.13D-04  2  2     3.70
   3      1.05697567    -0.21248002   -30.07624243    -0.00021279    -0.00000175  0.56D-08  0.44D-06  3  3     5.00
   4      1.05700656    -0.21249889   -30.07626130    -0.00001887    -0.00000006  0.21D-09  0.17D-07  4  4     6.32
   5      1.05701140    -0.21250196   -30.07626437    -0.00000306    -0.00000000  0.16D-10  0.96D-09  5  5     7.65

 Norm of t1 vector:      0.00901533      S-energy:     0.00000000      T1 diagnostic:  0.00225383
                                                                       D1 diagnostic:  0.00434125
 Norm of t2 vector:      0.23860034      P-energy:    -0.21250196
                                         Alpha-Beta:  -0.17115041
                                         Alpha-Alpha: -0.02067577
                                         Beta-Beta:   -0.02067577

 Spin contamination <S**2-Sz**2-Sz>     0.00000000

 Memory could be reduced to 45.57 Mwords without degradation in triples
 

 RESULTS
 =======

  Reference energy                    -29.863762408835
  RCCSD singles energy                  0.000000000165
  RCCSD pair energy                    -0.212501956432
  RCCSD correlation energy             -0.212501956267
  Triples (T) contribution             -0.005753173554
  Total correlation energy             -0.218255129821
 
  RHF-RCCSD energy                    -30.076264365102
  RHF-RCCSD[T] energy                 -30.082023044510
  RHF-RCCSD-T energy                  -30.082018601848
 !RHF-RCCSD(T) energy                 -30.082017538656

 Program statistics:

 Available memory in ccsd:               511999732
 Min. memory needed in ccsd:               1220276
 Max. memory used in ccsd:                 1533354
 Max. memory used in cckext:               1487746 ( 5 integral passes)
 Max. memory used in cckint:               5743569 ( 1 integral passes)



 **********************************************************************************************************************************
 DATASETS  * FILE   NREC   LENGTH (MB)   RECORD NAMES
              1      19       20.70       500      610      700      900      950      970     1000      129      960     1100   
                                          VAR    BASINP    GEOM    SYMINP    ZMAT    AOBASIS   BASIS     P2S    ABASIS      S 
                                         1400     1410     1420     1200     1210     1080     1600     1650     1700   
                                           T        V       ECP      H0       H01     AOSYM     SMH    MOLCAS    OPER   

              2       5        5.86       200      700     1000      520     4202   
                                        OPTIONS   GEOM     BASIS   MCVARS     RHF  

 PROGRAMS   *        TOTAL  RCCSD(T)       RHF  RCCSD(T)       RHF  RCCSD(T)       RHF  RCCSD(T)       RHF       INT
 CPU TIMES  *       177.29     13.34      2.04     18.20      3.33     21.23      2.89     28.66      3.99     83.44
 REAL TIME  *       207.22 SEC
 DISK USED  *         2.47 GB      
 SF USED    *       683.76 MB      
 GA USED    *         0.00 MB       (max)       0.00 MB       (current)
 **********************************************************************************************************************************
 SETTING CCSD(4)        =       -30.08201754  AU                              
 Output type csv         
                                                                                                                                                                                                                                                                

       SCF,CCSD
   -31.07192657,   -31.38378090
   -30.90504347,   -31.17337463
   -30.52858350,   -30.77289422
   -29.86376241,   -30.08201754
                                                  

 RCCSD(T)/USERDEF energy=    -30.082017538656

        RCCSD(T)        RHF-SCF         RCCSD(T)        RHF-SCF         RCCSD(T)        RHF-SCF         RCCSD(T)        RHF-SCF 
    -30.08201754    -29.86376241    -30.77289422    -30.52858350    -31.17337463    -30.90504347    -31.38378090    -31.07192657
 **********************************************************************************************************************************
 Molpro calculation terminated
 Variable memory released
