<?xml version="1.0"?>
<molpro xmlns="http://www.molpro.net/schema/molpro-output"
  xmlns:xsd="http://www.w3.org/1999/XMLSchema"
  xmlns:cml="http://www.xml-cml.org/schema"
  xmlns:stm="http://www.xml-cml.org/schema"
  xmlns:xhtml="http://www.w3.org/1999/xhtml">
 <!--

 Nodes     nprocs
 nid00480     3
 Number of processes for MPI-2 version of Molpro:   nprocs(total)=    4   nprocs(compute)=    3   nprocs(helper)=    1

 Using customized tuning parameters: mindgm=7; mindgv=16; mindgc=1; mindgr=1; noblas=0; minvec=7
 default implementation of scratch files=sf

 --><job>
  <!--

 Variables initialized (889), CPU time= 0.06 sec
 Commands  initialized (702), CPU time= 0.02 sec, 572 directives.
 Default parameters read. Elapsed time= 0.20 sec

 Checking input...
 Passed
1


                                         ***  PROGRAM SYSTEM MOLPRO  ***
                                       Copyright, TTI GmbH Stuttgart, 2015
                                    Version 2015.1 linked Dec 29 2018 15:55:43


 **********************************************************************************************************************************
 LABEL *   Calculation for all-electron SrO molecule, SCF and CCSD(T)
  64 bit mpp version                                                                     DATE: 14-Nov-19          TIME: 12:58:59
 **********************************************************************************************************************************

 SHA1:             19cd028119e0e09f93f0674bd8af7968d9b3eff6
 **********************************************************************************************************************************
  -->
  <!--

 THRESHOLDS:

 ZERO    =  1.00D-12  ONEINT  =  1.00D-12  TWOINT  =  1.00D-12  PREFAC  =  1.00D-14  LOCALI  =  1.00D-09  EORDER  =  1.00D-04
 ENERGY  =  0.00D+00  ETEST   =  0.00D+00  EDENS   =  0.00D+00  THRDEDEF=  1.00D-06  GRADIENT=  1.00D-02  STEP    =  1.00D-03
 ORBITAL =  1.00D-05  CIVEC   =  1.00D-05  COEFF   =  1.00D-04  PRINTCI =  5.00D-02  PUNCHCI =  9.90D+01  OPTGRAD =  3.00D-04
 OPTENERG=  1.00D-06  OPTSTEP =  3.00D-04  THRGRAD =  1.00D-10  COMPRESS=  1.00D-11  VARMIN  =  1.00D-07  VARMAX  =  1.00D-03
 THRDOUB =  0.00D+00  THRDIV  =  1.00D-05  THRRED  =  1.00D-07  THRPSP  =  1.00D+00  THRDC   =  1.00D-10  THRCS   =  1.00D-10
 THRNRM  =  1.00D-08  THREQ   =  0.00D+00  THRDE   =  1.00D+00  THRREF  =  1.00D-05  SPARFAC =  1.00D+00  THRDLP  =  1.00D-07
 THRDIA  =  1.00D-10  THRDLS  =  1.00D-07  THRGPS  =  0.00D+00  THRKEX  =  0.00D+00  THRDIS  =  2.00D-01  THRVAR  =  1.00D-10
 THRLOC  =  1.00D-06  THRGAP  =  1.00D-06  THRLOCT = -1.00D+00  THRGAPT = -1.00D+00  THRORB  =  1.00D-06  THRMLTP =  0.00D+00
 THRCPQCI=  1.00D-10  KEXTA   =  0.00D+00  THRCOARS=  0.00D+00  SYMTOL  =  1.00D-06  GRADTOL =  1.00D-06  THROVL  =  1.00D-08
 THRORTH =  1.00D-08  GRID    =  1.00D-06  GRIDMAX =  1.00D-03  DTMAX   =  0.00D+00  THROCCDE=  1.00D-01  THROCCDE=  1.00D-01


 SETTING DKROLL         =         1.00000000
 SETTING DKHO           =        10.00000000
 SETTING DKHP           =         4.00000000

 Variable memory set to 1000000000 words,  buffer space   230000 words

 SETTING BASIS          =    USERDEF

Geometry recognized as XYZ

  --><jobstep command="RHF-SCF" commandset="SCFPRO">
   <!--


 Recomputing integrals since basis changed


 Using spherical harmonics



 PROGRAM * SEWARD (Integral evaluation for generally contracted gaussian basis sets)     Author: Roland Lindh, 1990

 Geometry written to block  1 of record 700

 Orientation using atomic masses
 Molecule type: Atom
 Symmetry elements: X,Y,Z
 Rotational constants:       0.0000000      0.0000000      0.0000000 GHz  (calculated with average atomic masses)

 Point group  D2h


   --><cml:molecule>
    <cml:symmetry pointGroup="D2h"/>
    <cml:atomArray>
     <cml:atom id="a1" elementType="La" x3="0.0" y3="0.0" z3="0.0"/>
    </cml:atomArray>
    <cml:bondArray>
    </cml:bondArray>
   </cml:molecule><!--

 ATOMIC COORDINATES

 NR  ATOM    CHARGE       X              Y              Z

   1  LA     57.00    0.000000000    0.000000000    0.000000000

 NUCLEAR CHARGE:                   57
 NUMBER OF PRIMITIVE AOS:         414
 NUMBER OF SYMMETRY AOS:          325
 NUMBER OF CONTRACTIONS:          325   (  76Ag  +  54B3u +  54B2u +  24B1g +  54B1u +  24B2g +  24B3g +  15Au  )
 NUMBER OF CORE ORBITALS:          23   (   8Ag  +   3B3u +   3B2u +   2B1g +   3B1u +   2B2g +   2B3g +   0Au  )
 NUMBER OF VALENCE ORBITALS:       17   (   4Ag  +   3B3u +   3B2u +   1B1g +   3B1u +   1B2g +   1B3g +   1Au  )


 NUCLEAR REPULSION ENERGY    0.00000000

 One-electron integrals computed with SEWARD

 10nd-order Douglas-Kroll-Hess method activated. McWeeny DKH parametrization is used.

 Computing Douglas-Kroll / X2C integrals

 AO integral compression algorithm  1   Integral accuracy      1.0D-12

     874.512 MB (compressed) written to integral file ( 33.3%)

     Node minimum: 207.618 MB, node maximum: 335.544 MB


 NUMBER OF SORTED TWO-ELECTRON INTEGRALS:   60374759.     BUFFER LENGTH:  32768
 NUMBER OF SEGMENTS:   2  SEGMENT LENGTH:   31994087      RECORD LENGTH: 524288

 Memory used in sort:      32.55 MW

 SORT1 READ   328312177. AND WROTE    33462000. INTEGRALS IN     96 RECORDS. CPU TIME:     8.00 SEC, REAL TIME:     8.66 SEC
 SORT2 READ   100060557. AND WROTE   181127203. INTEGRALS IN   2376 RECORDS. CPU TIME:     1.21 SEC, REAL TIME:     1.68 SEC

 Node minimum:    60374759.  Node maximum:    60377559. integrals

 OPERATOR DM      FOR CENTER  0  COORDINATES:    0.000000    0.000000    0.000000

 EXTRA SYMMETRY OF AOS IN SYMMETRY 1:   1 1 1 1 1 1 1 1 1 1   1 1 1 1 1 1 1 1 1 1   1 1 1 1 1 1 1 1 1 1   1 1 2 3 2 3 2 3 2 3
                                        2 3 2 3 2 3 2 3 2 3   2 3 2 3 2 3 2 3 2 3   2 3 2 3 4 5 6 4 5 6   4 5 6 4 5 6
 EXTRA SYMMETRY OF AOS IN SYMMETRY 2:   1 1 1 1 1 1 1 1 1 1   1 1 1 1 1 1 1 1 1 1   1 1 1 1 1 2 3 2 3 2   3 2 3 2 3 2 3 2 3 2
                                        3 2 3 2 3 2 3 2 3 2   3 4 5 6
 EXTRA SYMMETRY OF AOS IN SYMMETRY 3:   1 1 1 1 1 1 1 1 1 1   1 1 1 1 1 1 1 1 1 1   1 1 1 1 1 2 3 2 3 2   3 2 3 2 3 2 3 2 3 2
                                        3 2 3 2 3 2 3 2 3 2   3 4 5 6
 EXTRA SYMMETRY OF AOS IN SYMMETRY 4:   1 1 1 1 1 1 1 1 1 1   1 1 1 1 1 1 2 3 2 3   2 3 2 3
 EXTRA SYMMETRY OF AOS IN SYMMETRY 5:   1 1 1 1 1 1 1 1 1 1   1 1 1 1 1 1 1 1 1 1   1 1 1 1 1 2 3 2 3 2   3 2 3 2 3 2 3 2 3 2
                                        3 2 3 2 3 2 3 2 3 2   3 4 5 6
 EXTRA SYMMETRY OF AOS IN SYMMETRY 6:   1 1 1 1 1 1 1 1 1 1   1 1 1 1 1 1 2 3 2 3   2 3 2 3
 EXTRA SYMMETRY OF AOS IN SYMMETRY 7:   1 1 1 1 1 1 1 1 1 1   1 1 1 1 1 1 2 3 2 3   2 3 2 3
 EXTRA SYMMETRY OF AOS IN SYMMETRY 8:   1 1 1 1 1 1 1 1 1 1   1 1 1 2 3

 Eigenvalues of metric

         1 0.164E-07 0.217E-05 0.293E-04 0.805E-04 0.200E-03 0.396E-03 0.702E-03 0.129E-02
         2 0.587E-05 0.769E-04 0.769E-04 0.338E-03 0.117E-02 0.124E-02 0.124E-02 0.260E-02
         3 0.587E-05 0.769E-04 0.769E-04 0.338E-03 0.117E-02 0.124E-02 0.124E-02 0.260E-02
         4 0.174E-02 0.626E-02 0.165E-01 0.371E-01 0.718E-01 0.127E+00 0.214E+00 0.314E+00
         5 0.587E-05 0.769E-04 0.769E-04 0.338E-03 0.117E-02 0.124E-02 0.124E-02 0.260E-02
         6 0.174E-02 0.626E-02 0.165E-01 0.371E-01 0.718E-01 0.127E+00 0.214E+00 0.314E+00
         7 0.174E-02 0.626E-02 0.165E-01 0.371E-01 0.718E-01 0.127E+00 0.214E+00 0.314E+00
         8 0.769E-04 0.124E-02 0.239E-01 0.663E-01 0.126E+00 0.262E+00 0.414E+00 0.720E+00


 **********************************************************************************************************************************
 DATASETS  * FILE   NREC   LENGTH (MB)   RECORD NAMES
              1      22       21.11       500      610      700      900      950      970     1000      129      960     1700
                                          VAR    BASINP    GEOM    SYMINP    ZMAT    AOBASIS   BASIS     P2S    ABASIS    OPER
                                         1101     1401     1411     1412     1650     1100     1400     1410     1200     1210
                                          SR      EKINR    POTR     PVPR    MOLCAS      S      EKIN      POT      H0       H01
                                         1080     1600
                                         AOSYM     SMH

 PROGRAMS   *        TOTAL       INT
 CPU TIMES  *        87.10     86.70
 REAL TIME  *        90.46 SEC
 DISK USED  *         2.07 GB
 GA USED    *         0.00 MB       (max)       0.00 MB       (current)
 **********************************************************************************************************************************


 PROGRAM * RHF-SCF (OPEN SHELL)       Authors: W. Meyer, H.-J. Werner


 NUMBER OF ELECTRONS:      29+   28-    SPACE SYMMETRY=1    SPIN SYMMETRY: Doublet
 CONVERGENCE THRESHOLDS:    1.00E-05 (Density)    1.14E-07 (Energy)
 MAX. NUMBER OF ITERATIONS:       60
 INTERPOLATION TYPE:            DIIS
 INTERPOLATION STEPS:              2 (START)      1 (STEP)
 LEVEL SHIFTS:                 -0.60 (CLOSED) -0.30 (OPEN)

 Number of closed-shell orbitals:   28 (  10   4   4   2   4   2   2   0 )
 Number of open-shell orbitals:      1 (   1   0   0   0   0   0   0   0 )



 Extra symmetries of mos in symmetry 1:   1   1   1   2   3   1   2   3   1   1   2
 Orbital guess generated from atomic densities. Full valence occupancy:   12   4   4   3   4   3   3   0


 Molecular orbital dump at record        4202.2

 ITERATION    DDIFF          GRAD             ENERGY        2-EL.EN.            DIPOLE MOMENTS         DIIS   ORB.
    1      0.000D+00      0.000D+00     -8488.62786666   6121.273882    0.00000    0.00000    0.00000    0    start
    2      0.000D+00      0.907D-02     -8489.24969134   6169.587888    0.00000    0.00000    0.00000    1    diag,B
    3      0.593D+00      0.607D-02     -8489.38259937   6161.062404    0.00000    0.00000    0.00000    2    diag,B
    4      0.862D-01      0.289D-02     -8489.45238556   6160.378414    0.00000    0.00000    0.00000    3    diag,B
    5      0.102D+00      0.182D-02     -8489.48800077   6162.854105    0.00000    0.00000    0.00000    4    diag,B
    6      0.788D-01      0.111D-02     -8489.50547929   6165.319464    0.00000    0.00000    0.00000    5    diag,B
    7      0.418D-01      0.639D-03     -8489.51258064   6167.196196    0.00000    0.00000    0.00000    6    fixocc
    8      0.200D-01      0.253D-03     -8489.51349559   6168.008835    0.00000    0.00000    0.00000    7    diag,B
    9      0.605D-02      0.973D-04     -8489.51366624   6168.358919    0.00000    0.00000    0.00000    8    diag,B
   10      0.116D-02      0.464D-04     -8489.51372919   6168.484068    0.00000    0.00000    0.00000    9    orth
   11      0.439D-03      0.267D-04     -8489.51375570   6168.512454    0.00000    0.00000    0.00000    9    diag,B
   12      0.252D-03      0.189D-04     -8489.51377600   6168.513845    0.00000    0.00000    0.00000    9    diag,B
   13      0.403D-03      0.121D-04     -8489.51378617   6168.525042    0.00000    0.00000    0.00000    9    diag,B
   14      0.171D-03      0.653D-05     -8489.51378832   6168.531698    0.00000    0.00000    0.00000    9    diag,B
   15      0.135D-03      0.320D-05     -8489.51378862   6168.533705    0.00000    0.00000    0.00000    9    diag,B
   16      0.141D-03      0.100D-05     -8489.51378863   6168.534950    0.00000    0.00000    0.00000    9    diag,B
   17      0.322D-04      0.356D-06     -8489.51378863   6168.535283    0.00000    0.00000    0.00000    9    diag,B
   18      0.268D-05      0.192D-06     -8489.51378863   6168.535238    0.00000    0.00000    0.00000    0    orth

 Final alpha occupancy:  11   4   4   2   4   2   2   0
 Final beta  occupancy:  10   4   4   2   4   2   2   0

 !RHF STATE 1.1 Energy              -8489.513788632739
   --><property name="Energy" method="RHF" principal="true" stateSymmetry="1" stateNumber="1"
     value="-8489.51378863274"/><!--
 Nuclear energy                         0.00000000
 One-electron energy               -11573.78140783
 Two-electron energy                 3084.26761920
 Virial quotient                       -0.82744022
 !RHF STATE 1.1 Dipole moment           0.00000000     0.00000000     0.00000000
 Dipole moment /Debye                   0.00000000     0.00000000     0.00000000
   --><property name="Dipole moment" method="RHF" principal="true" stateSymmetry="1"
     stateNumber="1" value="0.0 0.0 0.0"/><!--

 ELECTRON ORBITALS
 =================


   Orb  Occ    Energy  Couls-En    Coefficients

                                   1 1s      1 1s      1 1s      1 1s      1 1s      1 1s      1 1s      1 1s      1 1s      1 1s
                                   1 1s      1 1s      1 1s      1 1s      1 1s      1 1s      1 1s      1 1s      1 1s      1 1s
                                   1 1s      1 1s      1 1s      1 1s      1 1s      1 1s      1 1s      1 1s      1 1s      1 1s
                                   1 1s      1 1s      1 3d0     1 3d2+    1 3d0     1 3d2+    1 3d0     1 3d2+    1 3d0     1 3d2+
                                   1 3d0     1 3d2+    1 3d0     1 3d2+    1 3d0     1 3d2+    1 3d0     1 3d2+    1 3d0     1 3d2+
                                   1 3d0     1 3d2+    1 3d0     1 3d2+    1 3d0     1 3d2+    1 3d0     1 3d2+    1 3d0     1 3d2+
                                   1 3d0     1 3d2+    1 3d0     1 3d2+    1 5g0     1 5g4+    1 5g2+    1 5g0     1 5g4+    1 5g2+
                                   1 5g0     1 5g4+    1 5g2+    1 5g0     1 5g4+    1 5g2+

   1.1   2 -1437.6495-3139.0013  0.000213  0.000228  0.000641  0.001029  0.002093  0.003687  0.006887  0.012381  0.022748  0.041399
                                 0.075274  0.131674  0.210758  0.277748  0.255315  0.125473  0.020764  0.000065  0.000371 -0.000407
                                 0.000698  0.003106  0.000343 -0.000042  0.000012 -0.000006  0.000002 -0.000001  0.000000 -0.000000
                                -0.002765 -0.001156 -0.000000 -0.000000 -0.000000  0.000000 -0.000000 -0.000000 -0.000000  0.000000
                                -0.000000 -0.000000  0.000000  0.000000  0.000000 -0.000000  0.000000  0.000000 -0.000000 -0.000000
                                 0.000000  0.000000  0.000000 -0.000000  0.000000  0.000000  0.000000 -0.000000 -0.000000 -0.000000
                                -0.000000 -0.000000 -0.000000 -0.000000 -0.000000  0.000000 -0.000000  0.000000  0.000000  0.000000
                                -0.000000  0.000000 -0.000000 -0.000000 -0.000000 -0.000000

   2.1   2  -232.8437 -660.3509 -0.000075 -0.000080 -0.000226 -0.000364 -0.000742 -0.001310 -0.002461 -0.004461 -0.008304 -0.015413
                                -0.028963 -0.053449 -0.094018 -0.144867 -0.166634 -0.058365  0.257830  0.511369  0.339576  0.064394
                                -0.002259  0.003652  0.001237 -0.000285  0.000078 -0.000028  0.000012 -0.000004  0.000002 -0.000001
                                 0.000418 -0.003541 -0.000000 -0.000000 -0.000000 -0.000000 -0.000000  0.000000 -0.000000 -0.000000
                                -0.000001  0.000000 -0.000003  0.000000 -0.000001  0.000000 -0.000001  0.000000 -0.000000 -0.000000
                                -0.000000  0.000000  0.000000 -0.000000  0.000000  0.000000 -0.000000 -0.000000 -0.000000  0.000000
                                -0.000000 -0.000000 -0.000000 -0.000000 -0.000000 -0.000000 -0.000000  0.000000 -0.000000  0.000000
                                 0.000000  0.000000 -0.000000  0.000000 -0.000000 -0.000000

   3.1   2   -51.5040 -231.3517  0.000034  0.000037  0.000103  0.000165  0.000337  0.000596  0.001120  0.002033  0.003792  0.007058
                                 0.013334  0.024805  0.044317  0.070055  0.084137  0.028585 -0.181126 -0.471727 -0.383442  0.319493
                                 0.748635  0.395180  0.040863 -0.000684  0.000681 -0.000411  0.000068 -0.000034  0.000022 -0.000006
                                -0.069037 -0.039338 -0.000000  0.000000 -0.000000 -0.000000 -0.000000 -0.000000 -0.000001 -0.000000
                                -0.000004 -0.000000 -0.000011 -0.000000 -0.000024 -0.000000 -0.000039 -0.000000 -0.000062 -0.000000
                                -0.000010 -0.000000  0.000000 -0.000000 -0.000002 -0.000000 -0.000000 -0.000000  0.000001 -0.000000
                                 0.000001 -0.000000  0.000000 -0.000000 -0.000000  0.000000 -0.000000 -0.000001 -0.000000  0.000000
                                -0.000002  0.000000 -0.000000 -0.000000 -0.000000  0.000000

   4.1   2   -32.0729 -199.8063  0.000000  0.000000  0.000000  0.000000  0.000000  0.000000  0.000000  0.000000  0.000001  0.000001
                                 0.000002  0.000003  0.000006  0.000010  0.000012  0.000004 -0.000026 -0.000067 -0.000065  0.000073
                                 0.000172  0.000235  0.000040 -0.000008 -0.000007 -0.000003 -0.000001 -0.000001 -0.000001 -0.000000
                                -0.000225 -0.000084  0.000077  0.000000  0.000615  0.000000  0.003588  0.000000  0.016133  0.000000
                                 0.055358  0.000000  0.144753  0.000000  0.273447  0.000000  0.357225  0.000000  0.273097  0.000000
                                 0.094763  0.000000  0.009526  0.000000  0.000279  0.000000 -0.000127 -0.000000  0.000015  0.000000
                                -0.000017 -0.000000  0.000003  0.000000 -0.000027  0.000000 -0.000000  0.000007 -0.000000  0.000000
                                -0.000005  0.000000 -0.000000  0.000000 -0.000000  0.000000

   5.1   2   -32.0738 -199.7998  0.000000  0.000000 -0.000000  0.000000 -0.000000  0.000000 -0.000000 -0.000000 -0.000000 -0.000000
                                -0.000000 -0.000000 -0.000000 -0.000000 -0.000000  0.000000 -0.000000  0.000000 -0.000000  0.000000
                                -0.000000 -0.000000 -0.000000  0.000000 -0.000000  0.000000 -0.000000  0.000000 -0.000000  0.000000
                                 0.000000  0.000000 -0.000000  0.000077 -0.000000  0.000614 -0.000000  0.003588 -0.000000  0.016130
                                -0.000000  0.055347 -0.000000  0.144724 -0.000000  0.273398 -0.000000  0.357188 -0.000000  0.273174
                                -0.000000  0.094821 -0.000000  0.009536 -0.000000  0.000282  0.000000 -0.000127 -0.000000  0.000019
                                 0.000000 -0.000013 -0.000000  0.000004  0.000000  0.000000 -0.000015 -0.000000 -0.000000  0.000005
                                 0.000000  0.000000 -0.000000 -0.000000  0.000000  0.000000

   6.1   2   -11.1273  -98.7954 -0.000016 -0.000017 -0.000048 -0.000078 -0.000158 -0.000280 -0.000526 -0.000956 -0.001783 -0.003323
                                -0.006278 -0.011715 -0.020966 -0.033416 -0.040345 -0.013970  0.094405  0.258824  0.230059 -0.246705
                                -0.826067 -0.193289  0.775119  0.693018  0.096928 -0.006980  0.002859 -0.000669  0.000427 -0.000119
                                -0.116136 -0.071531  0.000000  0.000000  0.000000 -0.000000  0.000001  0.000000  0.000005  0.000000
                                 0.000015  0.000000  0.000041  0.000000  0.000079  0.000000  0.000101  0.000000  0.000080  0.000000
                                -0.000162 -0.000000 -0.000243 -0.000000 -0.000389 -0.000000 -0.000059 -0.000000  0.000005 -0.000000
                                -0.000006  0.000000 -0.000002  0.000000  0.000006 -0.000000  0.000000 -0.000115  0.000000 -0.000000
                                 0.000015 -0.000000  0.000000  0.000007 -0.000000  0.000000

   7.1   2    -4.3982  -78.6239 -0.000000 -0.000000 -0.000000 -0.000000 -0.000000 -0.000000 -0.000001 -0.000002 -0.000003 -0.000006
                                -0.000010 -0.000019 -0.000035 -0.000056 -0.000067 -0.000023  0.000160  0.000442  0.000403 -0.000436
                                -0.001766 -0.001449  0.001661  0.002933 -0.001863 -0.001587  0.000141  0.000072  0.000028  0.000008
                                 0.000726  0.000332 -0.000035  0.000000 -0.000279  0.000000 -0.001631  0.000000 -0.007404  0.000000
                                -0.025585  0.000000 -0.068322  0.000000 -0.127940  0.000000 -0.159347  0.000000 -0.050211  0.000000
                                 0.244690 -0.000000  0.462838 -0.000000  0.345563 -0.000000  0.095276 -0.000000  0.005202 -0.000000
                                 0.000306 -0.000000  0.000012  0.000000 -0.000129 -0.000000  0.000000 -0.000584  0.000000  0.000000
                                -0.000218  0.000000  0.000000  0.000073 -0.000000  0.000000

   8.1   2    -4.4006  -78.5502 -0.000000 -0.000000 -0.000000 -0.000000 -0.000000 -0.000000 -0.000000 -0.000000 -0.000000 -0.000000
                                 0.000000 -0.000000  0.000000 -0.000000  0.000000 -0.000000  0.000000 -0.000000  0.000000 -0.000000
                                 0.000000  0.000000  0.000000 -0.000000  0.000000 -0.000000  0.000000 -0.000000 -0.000000 -0.000000
                                -0.000000 -0.000000 -0.000000 -0.000035 -0.000000 -0.000279 -0.000000 -0.001628 -0.000000 -0.007389
                                -0.000000 -0.025536 -0.000000 -0.068187 -0.000000 -0.127703 -0.000000 -0.159035 -0.000000 -0.050319
                                 0.000000  0.243981  0.000000  0.461578  0.000000  0.346430  0.000000  0.096940  0.000000  0.005116
                                 0.000000  0.000156  0.000000 -0.000043 -0.000000  0.000000 -0.000084 -0.000000  0.000000 -0.000117
                                -0.000000 -0.000000 -0.000174 -0.000000 -0.000000 -0.000038

   9.1   2    -1.8176  -42.0465  0.000007  0.000007  0.000020  0.000032  0.000064  0.000114  0.000214  0.000388  0.000724  0.001350
                                 0.002550  0.004761  0.008526  0.013610  0.016458  0.005714 -0.039207 -0.108802 -0.098868  0.110669
                                 0.423426  0.198603 -0.501000 -0.775777  0.096404  0.850494  0.438751  0.019436 -0.006176  0.001117
                                -0.024051 -0.017574 -0.000000 -0.000000 -0.000001 -0.000000 -0.000008 -0.000000 -0.000036 -0.000000
                                -0.000128 -0.000000 -0.000328 -0.000000 -0.000647 -0.000000 -0.000736 -0.000000 -0.000302 -0.000000
                                 0.001614  0.000000  0.002208  0.000000  0.002507  0.000000 -0.004094  0.000000 -0.004298  0.000000
                                -0.001409 -0.000000 -0.000964 -0.000000  0.000007 -0.000000 -0.000000 -0.000213 -0.000000 -0.000000
                                 0.000541 -0.000000  0.000000  0.001287  0.000000  0.000000

  10.1   2    -0.1797  -14.6505 -0.000002 -0.000002 -0.000006 -0.000009 -0.000018 -0.000033 -0.000061 -0.000111 -0.000207 -0.000386
                                -0.000730 -0.001363 -0.002442 -0.003897 -0.004716 -0.001635  0.011258  0.031321  0.028542 -0.032170
                                -0.125625 -0.059294  0.160604  0.261324 -0.048682 -0.381345 -0.378106  0.322244  0.667403  0.239454
                                 0.009064  0.001453 -0.000001 -0.000000 -0.000010 -0.000000 -0.000061 -0.000000 -0.000275 -0.000000
                                -0.000952 -0.000000 -0.002551 -0.000000 -0.004764 -0.000000 -0.005911 -0.000000 -0.001269 -0.000000
                                 0.010993  0.000000  0.020518  0.000000  0.012700  0.000000 -0.022187 -0.000000 -0.063952 -0.000000
                                -0.081497  0.000000 -0.047850  0.000000  0.000035  0.000000 -0.000000 -0.000077 -0.000000 -0.000000
                                 0.001415  0.000000  0.000000  0.001567 -0.000000 -0.000000

  11.1   +    -0.2399  -23.3216  0.000000  0.000000  0.000001  0.000002  0.000003  0.000006  0.000011  0.000020  0.000037  0.000069
                                 0.000129  0.000243  0.000432  0.000696  0.000830  0.000309 -0.002043 -0.005471 -0.005323  0.006652
                                 0.017124 -0.052913 -0.049793 -0.039988  0.000677  0.087020  0.064778 -0.107406 -0.097026 -0.020831
                                 0.042015  0.040273 -0.000009 -0.000000 -0.000069 -0.000000 -0.000404 -0.000000 -0.001834 -0.000000
                                -0.006356 -0.000000 -0.016990 -0.000000 -0.031847 -0.000000 -0.039272 -0.000000 -0.008786 -0.000000
                                 0.074231  0.000000  0.135675  0.000000  0.087653  0.000000 -0.158415 -0.000000 -0.441104 -0.000000
                                -0.453834 -0.000000 -0.162283 -0.000000 -0.000053  0.000000  0.000000  0.000241 -0.000000  0.000000
                                -0.001863 -0.000000  0.000000 -0.008608 -0.000000  0.000000

  12.1   0     0.0402  -18.5013  0.000000  0.000000 -0.000000  0.000000  0.000000  0.000000  0.000000  0.000000  0.000000  0.000000
                                 0.000000  0.000000  0.000000  0.000000  0.000000 -0.000000  0.000000 -0.000000  0.000000 -0.000000
                                 0.000000  0.000000  0.000000 -0.000000  0.000000 -0.000000  0.000000 -0.000000  0.000000 -0.000000
                                -0.000000 -0.000000 -0.000000  0.000006 -0.000000  0.000053 -0.000000  0.000304 -0.000000  0.001399
                                -0.000000  0.004785 -0.000000  0.012962 -0.000000  0.023893 -0.000000  0.030307 -0.000000  0.005662
                                 0.000000 -0.053762  0.000000 -0.106196  0.000000 -0.060280 -0.000000  0.101920 -0.000000  0.339874
                                -0.000000  0.318395 -0.000000  0.514122 -0.000000  0.000000 -0.000059  0.000000 -0.000000  0.000272
                                -0.000000  0.000000 -0.002947 -0.000000  0.000000 -0.007912

  13.1   0     0.0522   -7.0121 -0.000001 -0.000001 -0.000003 -0.000004 -0.000009 -0.000016 -0.000029 -0.000054 -0.000095 -0.000192
                                -0.000325 -0.000703 -0.001028 -0.002162 -0.001542 -0.002295  0.008833  0.006757  0.033599 -0.090145
                                 0.370835  5.052607  1.692422 -0.454876  0.529019 -0.867207  0.491111 -1.623610  4.325287 -3.168252
                                -3.497580 -3.209555 -0.000000 -0.000000 -0.000001 -0.000000 -0.000004 -0.000000 -0.000020 -0.000000
                                -0.000067 -0.000000 -0.000184 -0.000000 -0.000331 -0.000000 -0.000435 -0.000000 -0.000055 -0.000000
                                 0.000713  0.000000  0.001577  0.000000  0.000655  0.000000 -0.001006 -0.000000 -0.005136 -0.000000
                                -0.005964 -0.000000 -0.010104 -0.000000  0.000035  0.000000  0.000000 -0.000085 -0.000000  0.000000
                                 0.000904 -0.000000  0.000000  0.003382 -0.000000  0.000000

                                   1 2px     1 2px     1 2px     1 2px     1 2px     1 2px     1 2px     1 2px     1 2px     1 2px
                                   1 2px     1 2px     1 2px     1 2px     1 2px     1 2px     1 2px     1 2px     1 2px     1 2px
                                   1 2px     1 2px     1 2px     1 2px     1 2px     1 4f1+    1 4f3+    1 4f1+    1 4f3+    1 4f1+
                                   1 4f3+    1 4f1+    1 4f3+    1 4f1+    1 4f3+    1 4f1+    1 4f3+    1 4f1+    1 4f3+    1 4f1+
                                   1 4f3+    1 4f1+    1 4f3+    1 4f1+    1 4f3+    1 4f1+    1 4f3+    1 4f1+    1 4f3+    1 4f1+
                                   1 4f3+    1 6h1+    1 6h3+    1 6h5+

   1.2   2  -208.6235 -621.8823  0.000010  0.000030  0.000095  0.000292  0.000914  0.002899  0.009175  0.027934  0.077316  0.178968
                                 0.313160  0.349526  0.193420  0.037445  0.001995 -0.000541 -0.001562  0.000167 -0.000077  0.000036
                                -0.000015  0.000007 -0.000004  0.000001  0.001685 -0.000001 -0.000000 -0.000003  0.000000 -0.000001
                                -0.000000  0.000000  0.000000  0.000002 -0.000000  0.000001 -0.000000  0.000000 -0.000000 -0.000000
                                 0.000000 -0.000000 -0.000000 -0.000000  0.000000  0.000000 -0.000000 -0.000002  0.000000 -0.000001
                                 0.000000  0.000000 -0.000000  0.000000

   2.2   2   -43.5676 -217.2193 -0.000005 -0.000014 -0.000046 -0.000140 -0.000440 -0.001401 -0.004468 -0.013776 -0.039107 -0.094211
                                -0.174505 -0.194558  0.013682  0.391654  0.489245  0.196723  0.022518  0.000947 -0.000010  0.000005
                                -0.000019  0.000010 -0.000005  0.000001 -0.002226  0.000000  0.000000 -0.000003 -0.000000 -0.000012
                                 0.000000 -0.000023 -0.000000 -0.000009  0.000000 -0.000000  0.000000  0.000003  0.000000  0.000002
                                -0.000000  0.000001  0.000000  0.000000 -0.000000  0.000000  0.000000 -0.000002 -0.000000 -0.000001
                                -0.000000 -0.000001 -0.000000 -0.000000

   3.2   2    -8.4371  -91.0821  0.000002  0.000007  0.000021  0.000065  0.000203  0.000646  0.002064  0.006377  0.018217  0.044216
                                 0.083151  0.092163 -0.025360 -0.268882 -0.380439  0.045619  0.567262  0.469048  0.093367  0.001168
                                 0.001181 -0.000463  0.000184 -0.000056  0.007236 -0.000000 -0.000000 -0.000001  0.000000 -0.000003
                                -0.000000 -0.000030  0.000000 -0.000188 -0.000000 -0.000177 -0.000000 -0.000098  0.000000 -0.000012
                                -0.000000 -0.000001  0.000000  0.000000 -0.000000  0.000000  0.000000  0.000032  0.000000 -0.000001
                                 0.000000 -0.000038 -0.000000 -0.000000

   4.2   2    -1.0521  -36.4376 -0.000001 -0.000002 -0.000008 -0.000024 -0.000076 -0.000241 -0.000770 -0.002377 -0.006808 -0.016525
                                -0.031237 -0.034428  0.010781  0.109212  0.155910 -0.041589 -0.312644 -0.311963  0.198261  0.579265
                                 0.390613  0.062795 -0.005734  0.002427 -0.008048 -0.000006  0.000000 -0.000048 -0.000000 -0.000196
                                 0.000000 -0.000561 -0.000000 -0.000751  0.000000 -0.001065  0.000000 -0.002128  0.000000 -0.005912
                                -0.000000 -0.005183  0.000000 -0.001348 -0.000000 -0.000106  0.000000 -0.000384 -0.000000 -0.000391
                                -0.000000 -0.000427 -0.000000 -0.000000

   5.2   0     0.0155   -8.8963  0.000000  0.000000  0.000001  0.000004  0.000013  0.000039  0.000128  0.000387  0.001135  0.002675
                                 0.005264  0.005347 -0.000995 -0.020207 -0.020165 -0.014233 -0.068445  0.097244 -0.088924 -0.049727
                                -0.218417  0.290180 -0.232161  1.078194  0.117913 -0.000003  0.000000 -0.000027  0.000000 -0.000113
                                 0.000000 -0.000312  0.000000 -0.000765 -0.000000 -0.001119 -0.000000 -0.001104 -0.000000 -0.000808
                                 0.000000 -0.004162 -0.000000 -0.007398  0.000000 -0.006633  0.000000  0.000189  0.000000  0.000267
                                 0.000000  0.000143  0.000000  0.000000

   6.2   0     0.1075   -9.2825 -0.000000 -0.000001 -0.000002 -0.000005 -0.000017 -0.000055 -0.000167 -0.000552 -0.001458 -0.003899
                                -0.006440 -0.009164  0.006121  0.015091  0.061582 -0.109326 -0.639827  0.124708 -0.169162  0.507781
                                -0.340912  1.104917 -2.908694  1.863294  0.538050  0.000009  0.000000  0.000069 -0.000000  0.000308
                                 0.000000  0.000773  0.000000  0.002827 -0.000000  0.004551 -0.000000  0.004259 -0.000000  0.001102
                                 0.000000  0.009467 -0.000000  0.005498  0.000000  0.035473 -0.000000 -0.001710  0.000000 -0.002788
                                 0.000000 -0.000198 -0.000000  0.000000

                                   1 2py     1 2py     1 2py     1 2py     1 2py     1 2py     1 2py     1 2py     1 2py     1 2py
                                   1 2py     1 2py     1 2py     1 2py     1 2py     1 2py     1 2py     1 2py     1 2py     1 2py
                                   1 2py     1 2py     1 2py     1 2py     1 2py     1 4f1-    1 4f3-    1 4f1-    1 4f3-    1 4f1-
                                   1 4f3-    1 4f1-    1 4f3-    1 4f1-    1 4f3-    1 4f1-    1 4f3-    1 4f1-    1 4f3-    1 4f1-
                                   1 4f3-    1 4f1-    1 4f3-    1 4f1-    1 4f3-    1 4f1-    1 4f3-    1 4f1-    1 4f3-    1 4f1-
                                   1 4f3-    1 6h1-    1 6h3-    1 6h5-

   1.3   2  -208.6235 -621.8823  0.000010  0.000030  0.000095  0.000292  0.000914  0.002899  0.009175  0.027934  0.077316  0.178968
                                 0.313160  0.349526  0.193420  0.037445  0.001995 -0.000541 -0.001562  0.000167 -0.000077  0.000036
                                -0.000015  0.000007 -0.000004  0.000001  0.001685 -0.000001  0.000000 -0.000003 -0.000000 -0.000001
                                 0.000000  0.000000 -0.000000  0.000002  0.000000  0.000001  0.000000  0.000000  0.000000 -0.000000
                                -0.000000 -0.000000  0.000000 -0.000000 -0.000000  0.000000  0.000000 -0.000002 -0.000000 -0.000001
                                -0.000000  0.000000 -0.000000 -0.000000

   2.3   2   -43.5676 -217.2193 -0.000005 -0.000014 -0.000046 -0.000140 -0.000440 -0.001401 -0.004468 -0.013776 -0.039107 -0.094211
                                -0.174505 -0.194558  0.013682  0.391654  0.489245  0.196723  0.022518  0.000947 -0.000010  0.000005
                                -0.000019  0.000010 -0.000005  0.000001 -0.002226  0.000000 -0.000000 -0.000003  0.000000 -0.000012
                                -0.000000 -0.000023  0.000000 -0.000009 -0.000000 -0.000000 -0.000000  0.000003 -0.000000  0.000002
                                 0.000000  0.000001 -0.000000  0.000000  0.000000  0.000000 -0.000000 -0.000002  0.000000 -0.000001
                                 0.000000 -0.000001 -0.000000  0.000000

   3.3   2    -8.4371  -91.0821  0.000002  0.000007  0.000021  0.000065  0.000203  0.000646  0.002064  0.006377  0.018217  0.044216
                                 0.083151  0.092163 -0.025360 -0.268882 -0.380439  0.045619  0.567262  0.469048  0.093367  0.001168
                                 0.001181 -0.000463  0.000184 -0.000056  0.007236 -0.000000  0.000000 -0.000001 -0.000000 -0.000003
                                 0.000000 -0.000030 -0.000000 -0.000188  0.000000 -0.000177  0.000000 -0.000098 -0.000000 -0.000012
                                 0.000000 -0.000001 -0.000000  0.000000  0.000000  0.000000 -0.000000  0.000032 -0.000000 -0.000001
                                -0.000000 -0.000038 -0.000000  0.000000

   4.3   2    -1.0521  -36.4376 -0.000001 -0.000002 -0.000008 -0.000024 -0.000076 -0.000241 -0.000770 -0.002377 -0.006808 -0.016525
                                -0.031237 -0.034428  0.010781  0.109212  0.155910 -0.041589 -0.312644 -0.311963  0.198261  0.579265
                                 0.390613  0.062795 -0.005734  0.002427 -0.008048 -0.000006 -0.000000 -0.000048  0.000000 -0.000196
                                -0.000000 -0.000561  0.000000 -0.000751 -0.000000 -0.001065 -0.000000 -0.002128 -0.000000 -0.005912
                                 0.000000 -0.005183 -0.000000 -0.001348  0.000000 -0.000106 -0.000000 -0.000384  0.000000 -0.000391
                                 0.000000 -0.000427 -0.000000  0.000000

   5.3   0     0.0155   -8.8963  0.000000  0.000000  0.000001  0.000004  0.000013  0.000039  0.000128  0.000387  0.001135  0.002675
                                 0.005264  0.005347 -0.000995 -0.020207 -0.020165 -0.014233 -0.068445  0.097244 -0.088924 -0.049727
                                -0.218417  0.290180 -0.232161  1.078194  0.117913 -0.000003  0.000000 -0.000027 -0.000000 -0.000113
                                 0.000000 -0.000312 -0.000000 -0.000765  0.000000 -0.001119  0.000000 -0.001104  0.000000 -0.000808
                                -0.000000 -0.004162  0.000000 -0.007398 -0.000000 -0.006633  0.000000  0.000189 -0.000000  0.000267
                                -0.000000  0.000143  0.000000 -0.000000

   6.3   0     0.1075   -9.2825 -0.000000 -0.000001 -0.000002 -0.000005 -0.000017 -0.000055 -0.000167 -0.000552 -0.001458 -0.003899
                                -0.006440 -0.009164  0.006121  0.015091  0.061582 -0.109326 -0.639827  0.124708 -0.169162  0.507781
                                -0.340912  1.104917 -2.908694  1.863294  0.538050  0.000009 -0.000000  0.000069  0.000000  0.000308
                                -0.000000  0.000773  0.000000  0.002827  0.000000  0.004551  0.000000  0.004259  0.000000  0.001102
                                -0.000000  0.009467  0.000000  0.005498 -0.000000  0.035473 -0.000000 -0.001710 -0.000000 -0.002788
                                -0.000000 -0.000198 -0.000000  0.000000

                                   1 3d2-    1 3d2-    1 3d2-    1 3d2-    1 3d2-    1 3d2-    1 3d2-    1 3d2-    1 3d2-    1 3d2-
                                   1 3d2-    1 3d2-    1 3d2-    1 3d2-    1 3d2-    1 3d2-    1 5g2-    1 5g4-    1 5g2-    1 5g4-
                                   1 5g2-    1 5g4-    1 5g2-    1 5g4-

   1.4   2   -32.0738 -199.7998  0.000077  0.000614  0.003588  0.016130  0.055347  0.144724  0.273398  0.357188  0.273174  0.094821
                                 0.009536  0.000282 -0.000127  0.000019 -0.000013  0.000004 -0.000015  0.000000  0.000005 -0.000000
                                -0.000000  0.000000  0.000000 -0.000000

   2.4   2    -4.4006  -78.5502 -0.000035 -0.000279 -0.001628 -0.007389 -0.025536 -0.068187 -0.127703 -0.159035 -0.050319  0.243981
                                 0.461578  0.346430  0.096940  0.005116  0.000156 -0.000043 -0.000084  0.000000 -0.000117  0.000000
                                -0.000174  0.000000 -0.000038 -0.000000

   3.4   0     0.0402  -18.5013  0.000006  0.000053  0.000304  0.001399  0.004785  0.012962  0.023893  0.030307  0.005662 -0.053762
                                -0.106196 -0.060280  0.101920  0.339874  0.318395  0.514122 -0.000059  0.000000  0.000272 -0.000000
                                -0.002947  0.000000 -0.007912  0.000000

   4.4   0     0.1867  -14.2872 -0.000006 -0.000046 -0.000300 -0.001229 -0.004696 -0.011331 -0.024109 -0.023821 -0.014168  0.067441
                                 0.067854  0.111421 -0.195997 -0.142266 -0.850342  1.176977  0.000042 -0.000000 -0.000192  0.000000
                                 0.002385 -0.000000  0.004880  0.000000

                                   1 2pz     1 2pz     1 2pz     1 2pz     1 2pz     1 2pz     1 2pz     1 2pz     1 2pz     1 2pz
                                   1 2pz     1 2pz     1 2pz     1 2pz     1 2pz     1 2pz     1 2pz     1 2pz     1 2pz     1 2pz
                                   1 2pz     1 2pz     1 2pz     1 2pz     1 2pz     1 4f0     1 4f2+    1 4f0     1 4f2+    1 4f0
                                   1 4f2+    1 4f0     1 4f2+    1 4f0     1 4f2+    1 4f0     1 4f2+    1 4f0     1 4f2+    1 4f0
                                   1 4f2+    1 4f0     1 4f2+    1 4f0     1 4f2+    1 4f0     1 4f2+    1 4f0     1 4f2+    1 4f0
                                   1 4f2+    1 6h2+    1 6h4+    1 6h0

   1.5   2  -208.6226 -621.8813  0.000010  0.000030  0.000095  0.000292  0.000914  0.002899  0.009175  0.027935  0.077316  0.178968
                                 0.313160  0.349524  0.193422  0.037447  0.001993 -0.000542 -0.001562  0.000167 -0.000077  0.000036
                                -0.000015  0.000007 -0.000004  0.000001  0.001683 -0.000001  0.000000  0.000001  0.000000  0.000001
                                 0.000000 -0.000003  0.000000  0.000004 -0.000000  0.000003 -0.000000  0.000001 -0.000000  0.000000
                                 0.000000  0.000000  0.000000  0.000000  0.000000  0.000000 -0.000000 -0.000005  0.000000 -0.000002
                                 0.000000  0.000000 -0.000000  0.000000

   2.5   2   -43.5639 -217.2165 -0.000005 -0.000014 -0.000046 -0.000140 -0.000440 -0.001401 -0.004468 -0.013776 -0.039108 -0.094213
                                -0.174510 -0.194558  0.013682  0.391687  0.489229  0.196678  0.022480  0.000953 -0.000019  0.000001
                                -0.000023  0.000010 -0.000005  0.000001 -0.002152  0.000001  0.000000 -0.000001  0.000000 -0.000018
                                 0.000000 -0.000046  0.000000  0.000048  0.000000  0.000025  0.000000 -0.000002  0.000000 -0.000007
                                -0.000000 -0.000002 -0.000000 -0.000001  0.000000  0.000000 -0.000000 -0.000046 -0.000000 -0.000020
                                -0.000000 -0.000000  0.000000 -0.000001

   3.5   2    -8.4311  -91.0929  0.000002  0.000007  0.000021  0.000065  0.000203  0.000646  0.002065  0.006379  0.018225  0.044233
                                 0.083185  0.092198 -0.025371 -0.269014 -0.380614  0.045868  0.568757  0.468957  0.092728  0.001173
                                 0.001203 -0.000448  0.000181 -0.000055  0.006221 -0.000001  0.000000 -0.000005  0.000000 -0.000014
                                -0.000000 -0.000008  0.000000 -0.000143  0.000000 -0.000180  0.000000 -0.000323  0.000000  0.000022
                                -0.000000  0.000031 -0.000000  0.000003  0.000000  0.000001 -0.000000  0.000075 -0.000000 -0.000231
                                -0.000000 -0.000000  0.000000 -0.000049

   4.5   2    -1.0486  -36.3762 -0.000001 -0.000002 -0.000008 -0.000024 -0.000075 -0.000240 -0.000768 -0.002371 -0.006790 -0.016479
                                -0.031154 -0.034327  0.010735  0.108960  0.155378 -0.041167 -0.310169 -0.312210  0.200190  0.573603
                                 0.392765  0.066778 -0.007027  0.002553 -0.009579 -0.000001  0.000000 -0.000012  0.000000 -0.000051
                                 0.000000 -0.000164  0.000000 -0.000299  0.000000 -0.000708  0.000000 -0.000333  0.000000  0.000182
                                 0.000000  0.005708  0.000000  0.002911  0.000000 -0.000033 -0.000000 -0.000033  0.000000  0.000298
                                 0.000000 -0.000000  0.000000 -0.000574

   5.5   0     0.0141   -9.1123  0.000000  0.000000  0.000001  0.000004  0.000013  0.000042  0.000136  0.000412  0.001207  0.002854
                                 0.005591  0.005731 -0.001156 -0.021272 -0.022166 -0.012526 -0.057836  0.098382 -0.089458 -0.062720
                                -0.217967  0.291920 -0.192992  1.044412  0.111327  0.000020  0.000000  0.000158  0.000000  0.000654
                                 0.000000  0.001844  0.000000  0.003663  0.000000  0.005228  0.000000  0.006010  0.000000  0.007271
                                 0.000000  0.012950  0.000000  0.015177  0.000000  0.009091  0.000000 -0.000071 -0.000000 -0.000211
                                -0.000000  0.000000  0.000000  0.000167

   6.5   0     0.1048   -9.3195 -0.000000 -0.000001 -0.000002 -0.000006 -0.000017 -0.000056 -0.000170 -0.000560 -0.001482 -0.003952
                                -0.006556 -0.009258  0.006099  0.015634  0.061697 -0.107878 -0.631794  0.120125 -0.163398  0.505304
                                -0.331956  1.065242 -2.860975  1.868323  0.529183 -0.000045 -0.000000 -0.000350 -0.000000 -0.001494
                                -0.000000 -0.004029 -0.000000 -0.010415 -0.000000 -0.015844 -0.000000 -0.016437 -0.000000 -0.012424
                                -0.000000 -0.026933 -0.000000 -0.014471 -0.000000 -0.072076 -0.000000  0.003333 -0.000000  0.005579
                                 0.000000 -0.000000 -0.000000 -0.000193

                                   1 3d1+    1 3d1+    1 3d1+    1 3d1+    1 3d1+    1 3d1+    1 3d1+    1 3d1+    1 3d1+    1 3d1+
                                   1 3d1+    1 3d1+    1 3d1+    1 3d1+    1 3d1+    1 3d1+    1 5g1+    1 5g3+    1 5g1+    1 5g3+
                                   1 5g1+    1 5g3+    1 5g1+    1 5g3+

   1.6   2   -32.0714 -199.7983  0.000077  0.000614  0.003588  0.016131  0.055348  0.144726  0.273402  0.357197  0.273166  0.094811
                                 0.009533  0.000281 -0.000126  0.000020 -0.000013  0.000004 -0.000024  0.000000  0.000006 -0.000000
                                -0.000004 -0.000000  0.000000 -0.000000

   2.6   2    -4.3958  -78.5601 -0.000035 -0.000279 -0.001628 -0.007392 -0.025544 -0.068208 -0.127741 -0.159089 -0.050296  0.244051
                                 0.461796  0.346482  0.096508  0.004947  0.000134 -0.000046 -0.000117  0.000000 -0.000441  0.000000
                                -0.000211  0.000000  0.000035 -0.000000

   3.6   0     0.0495  -17.8603  0.000006  0.000050  0.000290  0.001337  0.004559  0.012392  0.022748  0.029055  0.005125 -0.050802
                                -0.102316 -0.055727  0.094610  0.326852  0.292379  0.557664  0.000003  0.000000 -0.000025 -0.000000
                                -0.000126  0.000000  0.001287  0.000000

   4.6   0     0.1916  -14.7583 -0.000007 -0.000047 -0.000309 -0.001266 -0.004830 -0.011667 -0.024789 -0.024557 -0.014482  0.069217
                                 0.070152  0.113956 -0.200698 -0.144215 -0.876421  1.160906  0.000012 -0.000000 -0.000041  0.000000
                                 0.000574 -0.000000 -0.001537 -0.000000

                                   1 3d1-    1 3d1-    1 3d1-    1 3d1-    1 3d1-    1 3d1-    1 3d1-    1 3d1-    1 3d1-    1 3d1-
                                   1 3d1-    1 3d1-    1 3d1-    1 3d1-    1 3d1-    1 3d1-    1 5g1-    1 5g3-    1 5g1-    1 5g3-
                                   1 5g1-    1 5g3-    1 5g1-    1 5g3-

   1.7   2   -32.0714 -199.7983  0.000077  0.000614  0.003588  0.016131  0.055348  0.144726  0.273402  0.357197  0.273166  0.094811
                                 0.009533  0.000281 -0.000126  0.000020 -0.000013  0.000004 -0.000024  0.000000  0.000006 -0.000000
                                -0.000004  0.000000  0.000000  0.000000

   2.7   2    -4.3958  -78.5601 -0.000035 -0.000279 -0.001628 -0.007392 -0.025544 -0.068208 -0.127741 -0.159089 -0.050296  0.244051
                                 0.461796  0.346482  0.096508  0.004947  0.000134 -0.000046 -0.000117  0.000000 -0.000441  0.000000
                                -0.000211  0.000000  0.000035  0.000000

   3.7   0     0.0495  -17.8603  0.000006  0.000050  0.000290  0.001337  0.004559  0.012392  0.022748  0.029055  0.005125 -0.050802
                                -0.102316 -0.055727  0.094610  0.326852  0.292379  0.557664  0.000003  0.000000 -0.000025 -0.000000
                                -0.000126  0.000000  0.001287  0.000000

   4.7   0     0.1916  -14.7583 -0.000007 -0.000047 -0.000309 -0.001266 -0.004830 -0.011667 -0.024789 -0.024557 -0.014482  0.069217
                                 0.070152  0.113956 -0.200698 -0.144215 -0.876421  1.160906  0.000012 -0.000000 -0.000041  0.000000
                                 0.000574 -0.000000 -0.001537 -0.000000

                                   1 4f2-    1 4f2-    1 4f2-    1 4f2-    1 4f2-    1 4f2-    1 4f2-    1 4f2-    1 4f2-    1 4f2-
                                   1 4f2-    1 4f2-    1 4f2-    1 6h4-    1 6h2-

   1.8   0     0.1467   -7.5453  0.000084  0.000462  0.002793  0.004043  0.058345  0.105308  0.088747 -0.033354  0.129578 -0.236942
                                 1.112712 -0.066280 -0.109828  0.000000 -0.000108

   2.8   0     0.2848  -38.3078  0.000892  0.007398  0.029843  0.087662  0.126302  0.157094  0.199450  0.292678  0.126883  0.539015
                                -0.376261  0.058490  0.095991  0.000000 -0.001073

 HOMO     11.1    -0.239928 =      -6.5288eV
 LUMO      5.5     0.014147 =       0.3849eV
 LUMO-HOMO         0.254075 =       6.9137eV


 **********************************************************************************************************************************
 DATASETS  * FILE   NREC   LENGTH (MB)   RECORD NAMES
              1      22       21.11       500      610      700      900      950      970     1000      129      960     1700
                                          VAR    BASINP    GEOM    SYMINP    ZMAT    AOBASIS   BASIS     P2S    ABASIS    OPER
                                         1101     1401     1411     1412     1650     1100     1400     1410     1200     1210
                                          SR      EKINR    POTR     PVPR    MOLCAS      S      EKIN      POT      H0       H01
                                         1080     1600
                                         AOSYM     SMH

              2       4        3.27       700     1000      520     4202
                                         GEOM     BASIS   MCVARS     RHF

 PROGRAMS   *        TOTAL       RHF       INT
 CPU TIMES  *        91.74      4.60     86.70
 REAL TIME  *        95.43 SEC
 DISK USED  *         2.15 GB
 SF USED    *         0.07 MB
 GA USED    *         0.00 MB       (max)       0.00 MB       (current)
 **********************************************************************************************************************************
   -->
   <time start="12:59:00" end="13:00:34" cpu="91.74" system="2.52" real="95.43"/>
   <storage units="megabyte" memory="8001.84" sf="0.07" df="80.63" eaf="2067.14" ga="0.0"/>
  </jobstep><!--
 SETTING LA_SCF         =     -8489.51378863  AU
 SETTING _CC_NORM_MAX   =         2.00000000
  --><jobstep command="RCCSD(T)" commandset="CCSD">
   <!--


 PROGRAM * CCSD (Restricted open-shell coupled cluster)     Authors: C. Hampel, H.-J. Werner, 1991, M. Deegan, P.J. Knowles, 1992


 Convergence thresholds:  THRVAR = 1.00D-08  THRDEN = 1.14D-06

 CCSD(T)     terms to be evaluated (factor= 1.000)


 Number of closed-shell orbitals:  28 (  10   4   4   2   4   2   2   0 )
 Number of active  orbitals:        1 (   1   0   0   0   0   0   0   0 )
 Number of external orbitals:     296 (  65  50  50  22  50  22  22  15 )

 Memory could be reduced to 174.76 Mwords without degradation in triples

 Number of N-1 electron functions:              57
 Number of N-2 electron functions:            1596
 Number of singly external CSFs:              2850
 Number of doubly external CSFs:          13771914
 Total number of CSFs:                    13774764

 Molecular orbitals read from record     4202.2  Type=RHF/CANONICAL (state 1.1)

 Integral transformation finished. Total CPU:   5.29 sec, npass=  1  Memory used:  36.99 MW

 Starting RMP2 calculation

 Wavefunction is spin-projected

 ITER.      SQ.NORM     CORR.ENERGY   TOTAL ENERGY   ENERGY CHANGE        DEN1      VAR(S)    VAR(P)  DIIS     TIME
   1      1.19977081    -2.71302047 -8492.22680910    -2.71302047    -0.00246067  0.13D-04  0.22D-02  1  1     9.17
   2      1.20570999    -2.71563988 -8492.22942852    -0.00261942    -0.00007140  0.26D-06  0.10D-03  2  2    10.56
   3      1.20729947    -2.71604342 -8492.22983205    -0.00040353    -0.00000075  0.56D-08  0.10D-05  3  3    12.78
   4      1.20741291    -2.71605841 -8492.22984704    -0.00001499    -0.00000001  0.34D-09  0.12D-07  4  4    14.40
   5      1.20741625    -2.71605877 -8492.22984740    -0.00000036    -0.00000000  0.20D-10  0.13D-09  5  5    16.28

 Norm of t1 vector:      0.03218679      S-energy:    -0.00174945      T1 diagnostic:  0.00009288
 Norm of t2 vector:      0.45429094      P-energy:    -2.71430932
                                         Alpha-Beta:  -1.78030280
                                         Alpha-Alpha: -0.47346452
                                         Beta-Beta:   -0.46054200

 Spin contamination <S**2-Sz**2-Sz>     0.00000000
  Reference energy                  -8489.513788632752
   --><property name="energy" method="Reference" stateSymmetry="1" stateNumber="1"
     value="-8489.51378863275"/><!--
  RHF-RMP2 correlation energy          -2.716058769179
   --><property name="energy" method="RHF-RMP2 correlation" stateSymmetry="1" stateNumber="1"
     value="-2.71605876917895"/><!--
 !RHF-RMP2 energy                   -8492.229847401932
   --><property name="energy" method="RHF-RMP2" principal="true" stateSymmetry="1"
     stateNumber="1" value="-8492.22984740193"/><!--
 (NB above energy spin projected)

 Starting RCCSD calculation

 ITER.      SQ.NORM     CORR.ENERGY   TOTAL ENERGY   ENERGY CHANGE        DEN1      VAR(S)    VAR(P)  DIIS     TIME
   1      1.17429076    -2.54355121 -8492.05733984    -2.54355121    -0.03857955  0.43D-02  0.58D-02  0  0    44.66
   2      1.19615961    -2.58038164 -8492.09417027    -0.03683043    -0.00222618  0.47D-03  0.11D-02  1  1    72.42
   3      1.20364271    -2.57778143 -8492.09157006     0.00260021    -0.00044503  0.31D-03  0.34D-03  2  2    97.53
   4      1.21461867    -2.57991542 -8492.09370406    -0.00213399    -0.00008222  0.48D-04  0.76D-04  3  3   131.33
   5      1.21970933    -2.58040445 -8492.09419308    -0.00048902    -0.00002234  0.86D-05  0.24D-04  4  4   165.07
   6      1.22317770    -2.58064250 -8492.09443113    -0.00023805    -0.00000561  0.69D-06  0.70D-05  5  5   199.17
   7      1.22388653    -2.58067406 -8492.09446270    -0.00003157    -0.00000220  0.44D-06  0.27D-05  6  6   233.80
   8      1.22429972    -2.58068434 -8492.09447297    -0.00001028    -0.00000069  0.29D-06  0.74D-06  6  1   267.97
   9      1.22453130    -2.58069609 -8492.09448472    -0.00001175    -0.00000025  0.19D-06  0.21D-06  6  2   301.15
  10      1.22463296    -2.58070192 -8492.09449055    -0.00000583    -0.00000012  0.13D-06  0.73D-07  6  3   334.80
  11      1.22468024    -2.58070535 -8492.09449399    -0.00000344    -0.00000007  0.90D-07  0.30D-07  6  1   370.92
  12      1.22470231    -2.58070702 -8492.09449566    -0.00000167    -0.00000005  0.72D-07  0.18D-07  6  5   400.90
  13      1.22472279    -2.58070857 -8492.09449721    -0.00000155    -0.00000004  0.59D-07  0.13D-07  6  4   436.56
  14      1.22475087    -2.58071031 -8492.09449894    -0.00000174    -0.00000003  0.43D-07  0.85D-08  6  6   469.76
  15      1.22477197    -2.58071138 -8492.09450001    -0.00000107    -0.00000002  0.34D-07  0.96D-08  6  3   504.42
  16      1.22478033    -2.58071180 -8492.09450043    -0.00000042    -0.00000002  0.30D-07  0.10D-07  6  5   538.87
  17      1.22473718    -2.58070970 -8492.09449833     0.00000210    -0.00000002  0.36D-07  0.58D-08  6  2   566.59
  18      1.22473636    -2.58070968 -8492.09449832     0.00000002    -0.00000002  0.33D-07  0.50D-08  6  3   602.98
  19      1.22474017    -2.58070990 -8492.09449853    -0.00000022    -0.00000002  0.28D-07  0.41D-08  6  4   637.29
  20      1.22474119    -2.58070993 -8492.09449856    -0.00000003    -0.00000001  0.24D-07  0.33D-08  6  1   679.46
  21      1.22474426    -2.58071004 -8492.09449867    -0.00000011    -0.00000001  0.20D-07  0.27D-08  6  2   719.06
  22      1.22474337    -2.58070998 -8492.09449861     0.00000006    -0.00000001  0.20D-07  0.27D-08  6  6   755.68
  23      1.22474553    -2.58071006 -8492.09449869    -0.00000008    -0.00000001  0.19D-07  0.25D-08  6  3   789.20
  24      1.22474613    -2.58071006 -8492.09449869     0.00000000    -0.00000001  0.17D-07  0.23D-08  6  4   825.44
  25      1.22474728    -2.58071007 -8492.09449871    -0.00000002    -0.00000001  0.16D-07  0.21D-08  6  1   860.79
  26      1.22474640    -2.58070999 -8492.09449862     0.00000008    -0.00000001  0.15D-07  0.18D-08  6  2   888.82
  27      1.22474453    -2.58070987 -8492.09449850     0.00000012    -0.00000001  0.13D-07  0.16D-08  6  5   922.64
  28      1.22474434    -2.58070983 -8492.09449846     0.00000004    -0.00000001  0.13D-07  0.15D-08  6  2   957.68
  29      1.22474424    -2.58070979 -8492.09449842     0.00000005    -0.00000001  0.12D-07  0.14D-08  6  4   988.58
  30      1.22474419    -2.58070978 -8492.09449841     0.00000001    -0.00000001  0.12D-07  0.14D-08  6  1  1023.82
  31      1.22474419    -2.58070977 -8492.09449840     0.00000001    -0.00000001  0.11D-07  0.13D-08  6  2  1063.48
  32      1.22474423    -2.58070976 -8492.09449839     0.00000001    -0.00000001  0.11D-07  0.13D-08  6  1  1090.55
  33      1.22474421    -2.58070975 -8492.09449838     0.00000001    -0.00000001  0.11D-07  0.13D-08  6  2  1121.06
  34      1.22474421    -2.58070972 -8492.09449835     0.00000003    -0.00000001  0.10D-07  0.12D-08  6  6  1160.80
  35      1.22474427    -2.58070971 -8492.09449834     0.00000001    -0.00000001  0.99D-08  0.11D-08  6  2  1192.84
  36      1.22474430    -2.58070971 -8492.09449835    -0.00000001    -0.00000001  0.99D-08  0.11D-08  6  6  1227.35
  37      1.22474431    -2.58070970 -8492.09449834     0.00000001    -0.00000001  0.97D-08  0.11D-08  6  1  1263.68
  38      1.22474446    -2.58070966 -8492.09449829     0.00000004    -0.00000000  0.87D-08  0.99D-09  6  6  1300.58

 Norm of t1 vector:      0.13166534      S-energy:    -0.00171045      T1 diagnostic:  0.01196477
                                                                       D1 diagnostic:  0.08801107
 Norm of t2 vector:      0.45542145      P-energy:    -2.57899921
                                         Alpha-Beta:  -1.72844653
                                         Alpha-Alpha: -0.43145419
                                         Beta-Beta:   -0.41909850

 Singles amplitudes (print threshold =  0.500E-01):

         I         SYM. A    A   T(IA) [Alpha-Alpha]

        10         1         3      0.07460722
        10         1         6      0.05418989

         I         SYM. A    A   T(IA) [Beta-Beta]

        10         1         3      0.06671111

 Doubles amplitudes (print threshold =  0.500E-01):

         I         J         SYM. A    SYM. B    A         B      T(IJ, AB) [Alpha-Beta]

        10        10         1         1         2         2     -0.07553871
        10        10         2         2         1         1     -0.07251277
        10        10         2         2         1         2      0.05068293
        10        10         2         2         2         1      0.05068293
        10        10         3         3         1         1     -0.07251277
        10        10         3         3         1         2      0.05068293
        10        10         3         3         2         1      0.05068293
        10        10         4         4         1         1     -0.07553871

 Spin contamination <S**2-Sz**2-Sz>     0.00000000

 Memory could be reduced to 191.59 Mwords without degradation in triples


  Correlated core orbitals:             1.1       2.1       3.1       4.1       5.1       6.1       7.1       8.1       1.2       2.2
                                        3.2       1.3       2.3       3.3       1.4       2.4       1.5       2.5       3.5       1.6
                                        2.6       1.7       2.7
  Orbital energies:                 -1437.6496 -232.8447  -51.5045  -32.0765  -32.0743  -11.1292   -4.4067   -4.4017 -208.6241  -43.5680
                                       -8.4384 -208.6241  -43.5680   -8.4384  -32.0743   -4.4017 -208.6243  -43.5647   -8.4341  -32.0717
                                       -4.3964  -32.0717   -4.3964

  RCCSD core-core energy               -2.017367079273
   --><property name="core-core energy" method="RCCSD" stateSymmetry="1" stateNumber="1"
     value="-2.01736707927278"/><!--
  RCCSD core-valence energy            -0.287548209280
   --><property name="core-valence energy" method="RCCSD" stateSymmetry="1" stateNumber="1"
     value="-0.28754820927984"/><!--
  RCCSD valence correlation energy     -0.275794372329
   --><property name="valence correlation energy" method="RCCSD" stateSymmetry="1"
     stateNumber="1" value="-0.275794372328893"/><!--


 RESULTS
 =======

  Reference energy                  -8489.513788632752
   --><property name="energy" method="Reference" stateSymmetry="1" stateNumber="1"
     value="-8489.51378863275"/><!--
  RCCSD singles energy                 -0.001710451317
   --><property name="energy" method="RCCSD singles" stateSymmetry="1" stateNumber="1"
     value="-0.171045131679293E-02"/><!--
  RCCSD pair energy                    -2.578999209565
   --><property name="energy" method="RCCSD pair" stateSymmetry="1" stateNumber="1"
     value="-2.57899920956472"/><!--
  RCCSD correlation energy             -2.580709660882
   --><property name="energy" method="RCCSD correlation" stateSymmetry="1" stateNumber="1"
     value="-2.58070966088151"/><!--
  Triples (T) contribution             -0.040558265449
   --><property name="contribution" method="Triples (T)" stateSymmetry="1" stateNumber="1"
     value="-0.405582654486889E-01"/><!--
  Total correlation energy             -2.621267926330
   --><property name="energy" method="Total correlation" stateSymmetry="1" stateNumber="1"
     value="-2.6212679263302"/><!--

  RHF-RCCSD energy                  -8492.094498293634
   --><property name="energy" method="RHF-RCCSD" stateSymmetry="1" stateNumber="1"
     value="-8492.09449829363"/><!--
  RHF-RCCSD[T] energy               -8492.136017365196
   --><property name="energy" method="RHF-RCCSD[T]" stateSymmetry="1" stateNumber="1"
     value="-8492.1360173652"/><!--
  RHF-RCCSD-T energy                -8492.135033654578
   --><property name="energy" method="RHF-RCCSD-T" stateSymmetry="1" stateNumber="1"
     value="-8492.13503365458"/><!--
 !RHF-RCCSD(T) energy               -8492.135056559084
   --><property name="energy" method="RHF-RCCSD(T)" principal="true" stateSymmetry="1"
     stateNumber="1" value="-8492.13505655908"/><!--

 Program statistics:

 Available memory in ccsd:               999992882
 Min. memory needed in ccsd:              37898983
 Max. memory used in ccsd:                55733508
 Max. memory used in cckext:              46134364 (38 integral passes)
 Max. memory used in cckint:              36989731 ( 1 integral passes)



 **********************************************************************************************************************************
 DATASETS  * FILE   NREC   LENGTH (MB)   RECORD NAMES
              1      22       21.11       500      610      700      900      950      970     1000      129      960     1700
                                          VAR    BASINP    GEOM    SYMINP    ZMAT    AOBASIS   BASIS     P2S    ABASIS    OPER
                                         1101     1401     1411     1412     1650     1100     1400     1410     1200     1210
                                          SR      EKINR    POTR     PVPR    MOLCAS      S      EKIN      POT      H0       H01
                                         1080     1600
                                         AOSYM     SMH

              2       4        3.27       700     1000      520     4202
                                         GEOM     BASIS   MCVARS     RHF

 PROGRAMS   *        TOTAL  RCCSD(T)       RHF       INT
 CPU TIMES  *      2857.03   2765.29      4.60     86.70
 REAL TIME  *      3456.25 SEC
 DISK USED  *         7.40 GB
 SF USED    *         3.84 GB
 GA USED    *         0.00 MB       (max)       0.00 MB       (current)
 **********************************************************************************************************************************
   -->
   <time start="13:00:34" end="13:56:35" cpu="2765.29" system="190.57" real="3360.82"/>
   <storage units="megabyte" memory="8001.84" sf="3836.1" df="5334.35" eaf="2067.14"
     ga="0.0"/>
  </jobstep><!--
 SETTING LA_CCSD        =     -8492.13505656  AU

Geometry recognized as XYZ

  --><jobstep command="RHF-SCF" commandset="SCFPRO">
   <!--


 Recomputing integrals since geometry and symmetry changed


 Using spherical harmonics



 PROGRAM * SEWARD (Integral evaluation for generally contracted gaussian basis sets)     Author: Roland Lindh, 1990

 Geometry written to block  1 of record 701

 Orientation using atomic masses
 Molecule type: Atom
 Symmetry elements: X,Y,Z
 Rotational constants:       0.0000000      0.0000000      0.0000000 GHz  (calculated with average atomic masses)

 Point group  D2h



 ATOMIC COORDINATES

 NR  ATOM    CHARGE       X              Y              Z

   1  O       8.00    0.000000000    0.000000000    0.000000000

 NUCLEAR CHARGE:                    8
 NUMBER OF PRIMITIVE AOS:          81
 NUMBER OF SYMMETRY AOS:           71
 NUMBER OF CONTRACTIONS:           71   (  21Ag  +  12B3u +  12B2u +   4B1g +  12B1u +   4B2g +   4B3g +   2Au  )
 NUMBER OF CORE ORBITALS:           1   (   1Ag  +   0B3u +   0B2u +   0B1g +   0B1u +   0B2g +   0B3g +   0Au  )
 NUMBER OF VALENCE ORBITALS:        4   (   1Ag  +   1B3u +   1B2u +   0B1g +   1B1u +   0B2g +   0B3g +   0Au  )

 MOLECULE CHANGED: INITIALIZING OCCUPATION AND DUMP RECORDS


 NUCLEAR REPULSION ENERGY    0.00000000

 One-electron integrals computed with SEWARD

 10nd-order Douglas-Kroll-Hess method activated. McWeeny DKH parametrization is used.

 Computing Douglas-Kroll / X2C integrals

 AO integral compression algorithm  1   Integral accuracy      1.0D-13

     5.243 MB (compressed) written to integral file ( 81.9%)

     Node minimum: 1.573 MB, node maximum: 2.097 MB


 NUMBER OF SORTED TWO-ELECTRON INTEGRALS:     152430.     BUFFER LENGTH:  32768
 NUMBER OF SEGMENTS:   1  SEGMENT LENGTH:     152430      RECORD LENGTH: 524288

 Memory used in sort:       0.71 MW

 SORT1 READ      886537. AND WROTE      116245. INTEGRALS IN      1 RECORDS. CPU TIME:     0.05 SEC, REAL TIME:     0.11 SEC
 SORT2 READ      362230. AND WROTE      465933. INTEGRALS IN     24 RECORDS. CPU TIME:     0.01 SEC, REAL TIME:     0.02 SEC

 Node minimum:      152430.  Node maximum:      158280. integrals

 OPERATOR DM      FOR CENTER  0  COORDINATES:    0.000000    0.000000    0.000000

 EXTRA SYMMETRY OF AOS IN SYMMETRY 1:   1 1 1 1 1 1 1 1 1 1   1 1 1 2 3 2 3 2 3 2   3
 EXTRA SYMMETRY OF AOS IN SYMMETRY 2:   1 1 1 1 1 1 1 1 2 3   2 3
 EXTRA SYMMETRY OF AOS IN SYMMETRY 3:   1 1 1 1 1 1 1 1 2 3   2 3
 EXTRA SYMMETRY OF AOS IN SYMMETRY 5:   1 1 1 1 1 1 1 1 2 3   2 3

 Eigenvalues of metric

         1 0.267E-04 0.466E-03 0.119E-01 0.237E-01 0.730E-01 0.132E+00 0.255E+00 0.261E+00
         2 0.763E-02 0.514E-01 0.125E+00 0.335E+00 0.447E+00 0.447E+00 0.706E+00 0.127E+01
         3 0.763E-02 0.514E-01 0.125E+00 0.335E+00 0.447E+00 0.447E+00 0.706E+00 0.127E+01
         4 0.261E+00 0.743E+00 0.111E+01 0.188E+01
         5 0.763E-02 0.514E-01 0.125E+00 0.335E+00 0.447E+00 0.447E+00 0.706E+00 0.127E+01
         6 0.261E+00 0.743E+00 0.111E+01 0.188E+01
         7 0.261E+00 0.743E+00 0.111E+01 0.188E+01
         8 0.447E+00 0.155E+01


 **********************************************************************************************************************************
 DATASETS  * FILE   NREC   LENGTH (MB)   RECORD NAMES
              1      23       20.13       500      610      700      701      900      950      970     1001      129      960
                                          VAR    BASINP    GEOM     GEOM    SYMINP    ZMAT    AOBASIS   BASIS     P2S    ABASIS
                                         1700     1101     1401     1411     1412     1650     1100     1400     1410     1200
                                         OPER      SR      EKINR    POTR     PVPR    MOLCAS      S      EKIN      POT      H0
                                         1210     1080     1600
                                          H01     AOSYM     SMH

              2       6        3.67       700     1000      520     4202      701     1001
                                         GEOM     BASIS   MCVARS     RHF     GEOM     BASIS

 PROGRAMS   *        TOTAL       INT  RCCSD(T)       RHF       INT
 CPU TIMES  *      2857.85      0.80   2765.29      4.60     86.70
 REAL TIME  *      3457.49 SEC
 DISK USED  *         7.40 GB
 SF USED    *         3.84 GB
 GA USED    *         0.00 MB       (max)       0.00 MB       (current)
 **********************************************************************************************************************************


 PROGRAM * RHF-SCF (OPEN SHELL)       Authors: W. Meyer, H.-J. Werner


 NUMBER OF ELECTRONS:       5+    3-    SPACE SYMMETRY=7    SPIN SYMMETRY: Triplet
 CONVERGENCE THRESHOLDS:    1.00E-05 (Density)    1.00E-07 (Energy)
 MAX. NUMBER OF ITERATIONS:       60
 INTERPOLATION TYPE:            DIIS
 INTERPOLATION STEPS:              2 (START)      1 (STEP)
 LEVEL SHIFTS:                 -0.60 (CLOSED) -0.30 (OPEN)


 Singly occupied orbitals:      1.3       1.5
 Orbital guess generated from atomic densities. Full valence occupancy:    2   1   1   0   1   0   0   0


 Molecular orbital dump at record        2101.2

 ITERATION    DDIFF          GRAD             ENERGY        2-EL.EN.            DIPOLE MOMENTS         DIIS   ORB.
    1      0.000D+00      0.000D+00       -74.83615292     55.194582    0.00000    0.00000    0.00000    0    start
    2      0.000D+00      0.157D-01       -74.85797954     56.851198    0.00000    0.00000    0.00000    1    diag,B
    3      0.482D-02      0.426D-02       -74.85909294     56.854821    0.00000    0.00000    0.00000    2    diag,B
    4      0.106D-02      0.151D-02       -74.85944927     56.895314    0.00000    0.00000    0.00000    3    diag,B
    5      0.755D-03      0.453D-03       -74.85949179     56.903906    0.00000    0.00000    0.00000    4    diag,B
    6      0.361D-03      0.103D-03       -74.85949375     56.902948    0.00000    0.00000    0.00000    5    diag,B
    7      0.105D-03      0.216D-04       -74.85949384     56.902517    0.00000    0.00000    0.00000    6    fixocc
    8      0.179D-04      0.691D-05       -74.85949385     56.902364    0.00000    0.00000    0.00000    7    diag,B
    9      0.671D-05      0.207D-05       -74.85949385     56.902337    0.00000    0.00000    0.00000    0    orth

 Final alpha occupancy:   2   1   1   0   1   0   0   0
 Final beta  occupancy:   2   1   0   0   0   0   0   0

 !RHF STATE 1.7 Energy                -74.859493848608
   --><property name="Energy" method="RHF" principal="true" stateSymmetry="7" stateNumber="1"
     value="-74.8594938486081"/><!--
 Nuclear energy                         0.00000000
 One-electron energy                 -103.31066243
 Two-electron energy                   28.45116858
 Virial quotient                       -0.99538617
 !RHF STATE 1.7 Dipole moment           0.00000000     0.00000000     0.00000000
 Dipole moment /Debye                   0.00000000     0.00000000     0.00000000
   --><property name="Dipole moment" method="RHF" principal="true" stateSymmetry="7"
     stateNumber="1" value="0.0 0.0 0.0"/><!--

 Orbital energies:

         1.1          2.1          3.1          4.1
    -20.686735    -1.248262     0.150844     0.622214

         1.2          2.2          3.2
     -0.566632     0.162597     0.904108

         1.3          2.3          3.3
     -0.702526     0.153085     0.860936

         1.4          2.4
      0.638171     2.087267

         1.5          2.5          3.5
     -0.702526     0.153085     0.860936

         1.6          2.6
      0.638171     2.087267

         1.7          2.7
      0.622214     2.040806

         1.8          2.8
      2.017233     6.380082

 HOMO      1.2    -0.566632 =     -15.4189eV
 LUMO      3.1     0.150844 =       4.1047eV
 LUMO-HOMO         0.717476 =      19.5235eV


 **********************************************************************************************************************************
 DATASETS  * FILE   NREC   LENGTH (MB)   RECORD NAMES
              1      23       20.13       500      610      700      701      900      950      970     1001      129      960
                                          VAR    BASINP    GEOM     GEOM    SYMINP    ZMAT    AOBASIS   BASIS     P2S    ABASIS
                                         1700     1101     1401     1411     1412     1650     1100     1400     1410     1200
                                         OPER      SR      EKINR    POTR     PVPR    MOLCAS      S      EKIN      POT      H0
                                         1210     1080     1600
                                          H01     AOSYM     SMH

              2       7        6.18       700     1000      520     4202      701     1001     2101
                                         GEOM     BASIS   MCVARS     RHF     GEOM     BASIS     RHF

 PROGRAMS   *        TOTAL       RHF       INT  RCCSD(T)       RHF       INT
 CPU TIMES  *      2857.98      0.11      0.80   2765.29      4.60     86.70
 REAL TIME  *      3457.68 SEC
 DISK USED  *         7.40 GB
 SF USED    *         3.84 GB
 GA USED    *         0.00 MB       (max)       0.00 MB       (current)
 **********************************************************************************************************************************
   -->
   <time start="13:56:35" end="13:56:37" cpu="0.95" system="0.13" real="1.43"/>
   <storage units="megabyte" memory="8001.84" sf="3836.1" df="5334.35" eaf="2067.14"
     ga="0.0"/>
  </jobstep><!--
 SETTING O_SCF          =       -74.85949385  AU
 SETTING _CC_NORM_MAX   =         2.00000000
  --><jobstep command="RCCSD(T)" commandset="CCSD">
   <!--


 PROGRAM * CCSD (Restricted open-shell coupled cluster)     Authors: C. Hampel, H.-J. Werner, 1991, M. Deegan, P.J. Knowles, 1992


 Convergence thresholds:  THRVAR = 1.00D-08  THRDEN = 1.00D-06

 CCSD(T)     terms to be evaluated (factor= 1.000)


 Number of closed-shell orbitals:   3 (   2   1   0   0   0   0   0   0 )
 Number of active  orbitals:        2 (   0   0   1   0   1   0   0   0 )
 Number of external orbitals:      66 (  19  11  11   4  11   4   4   2 )

 Memory could be reduced to 19.11 Mwords without degradation in triples

 Number of N-1 electron functions:               8
 Number of N-2 electron functions:              28
 Number of singly external CSFs:               122
 Number of doubly external CSFs:             14302
 Total number of CSFs:                       14424

 Molecular orbitals read from record     2101.2  Type=RHF/CANONICAL (state 1.7)

 Integral transformation finished. Total CPU:   0.05 sec, npass=  1  Memory used:   0.14 MW

 Starting RMP2 calculation

 Wavefunction is spin-projected

 ITER.      SQ.NORM     CORR.ENERGY   TOTAL ENERGY   ENERGY CHANGE        DEN1      VAR(S)    VAR(P)  DIIS     TIME
   1      1.03209333    -0.21146068   -75.07095453    -0.21146068    -0.00024244  0.12D-05  0.66D-04  1  1     0.10
   2      1.03225555    -0.21171681   -75.07121066    -0.00025613    -0.00000029  0.51D-08  0.91D-07  2  2     0.11
   3      1.03225940    -0.21172062   -75.07121446    -0.00000381    -0.00000000  0.11D-10  0.19D-09  3  3     0.11
   4      1.03225943    -0.21172061   -75.07121445     0.00000001    -0.00000000  0.17D-12  0.97D-12  4  4     0.11

 Norm of t1 vector:      0.03485868      S-energy:    -0.00394412      T1 diagnostic:  0.00044104
 Norm of t2 vector:      0.17619392      P-energy:    -0.20777649
                                         Alpha-Beta:  -0.16349276
                                         Alpha-Alpha: -0.03748400
                                         Beta-Beta:   -0.00679972

 Spin contamination <S**2-Sz**2-Sz>     0.00000000
  Reference energy                    -74.859493848608
   --><property name="energy" method="Reference" stateSymmetry="1" stateNumber="1"
     value="-74.8594938486081"/><!--
  RHF-RMP2 correlation energy          -0.211720605675
   --><property name="energy" method="RHF-RMP2 correlation" stateSymmetry="1" stateNumber="1"
     value="-0.211720605675058"/><!--
 !RHF-RMP2 energy                     -75.071214454283
   --><property name="energy" method="RHF-RMP2" principal="true" stateSymmetry="7"
     stateNumber="1" value="-75.0712144542831"/><!--
 (NB above energy spin projected)

 Starting RCCSD calculation

 ITER.      SQ.NORM     CORR.ENERGY   TOTAL ENERGY   ENERGY CHANGE        DEN1      VAR(S)    VAR(P)  DIIS     TIME
   1      1.03814569    -0.22399684   -75.08349069    -0.22399684    -0.00335018  0.26D-03  0.62D-03  1  1     0.14
   2      1.04095400    -0.22742548   -75.08691933    -0.00342863    -0.00018599  0.47D-04  0.39D-04  2  2     0.14
   3      1.04203912    -0.22810288   -75.08759673    -0.00067740    -0.00001631  0.70D-05  0.32D-05  3  3     0.16
   4      1.04241134    -0.22824845   -75.08774230    -0.00014558    -0.00000173  0.92D-06  0.35D-06  4  4     0.17
   5      1.04253241    -0.22827292   -75.08776677    -0.00002447    -0.00000008  0.36D-07  0.17D-07  5  5     0.18
   6      1.04254938    -0.22827577   -75.08776961    -0.00000284    -0.00000000  0.13D-08  0.66D-09  6  6     0.19
   7      1.04255083    -0.22827588   -75.08776973    -0.00000011    -0.00000000  0.76D-10  0.30D-10  6  3     0.21

 Norm of t1 vector:      0.05363847      S-energy:    -0.00484655      T1 diagnostic:  0.00515247
                                                                       D1 diagnostic:  0.01129013
 Norm of t2 vector:      0.19918270      P-energy:    -0.22342933
                                         Alpha-Beta:  -0.17937564
                                         Alpha-Alpha: -0.03725463
                                         Beta-Beta:   -0.00679905

 Spin contamination <S**2-Sz**2-Sz>     0.00000000

 Memory could be reduced to 0.88 Mwords without degradation in triples


  Correlated core orbitals:             1.1
  Orbital energies:                   -20.7231

  RCCSD core-core energy               -0.037823196353
   --><property name="core-core energy" method="RCCSD" stateSymmetry="7" stateNumber="1"
     value="-0.378231963525951E-01"/><!--
  RCCSD core-valence energy            -0.017728189701
   --><property name="core-valence energy" method="RCCSD" stateSymmetry="7" stateNumber="1"
     value="-0.177281897010696E-01"/><!--
  RCCSD valence correlation energy     -0.172724493312
   --><property name="valence correlation energy" method="RCCSD" stateSymmetry="7"
     stateNumber="1" value="-0.172724493311741"/><!--


 RESULTS
 =======

  Reference energy                    -74.859493848608
   --><property name="energy" method="Reference" stateSymmetry="1" stateNumber="1"
     value="-74.8594938486081"/><!--
  RCCSD singles energy                 -0.004846549580
   --><property name="energy" method="RCCSD singles" stateSymmetry="1" stateNumber="1"
     value="-0.484654958002095E-02"/><!--
  RCCSD pair energy                    -0.223429329785
   --><property name="energy" method="RCCSD pair" stateSymmetry="1" stateNumber="1"
     value="-0.223429329785384"/><!--
  RCCSD correlation energy             -0.228275879365
   --><property name="energy" method="RCCSD correlation" stateSymmetry="1" stateNumber="1"
     value="-0.228275879365405"/><!--
  Triples (T) contribution             -0.004045158315
   --><property name="contribution" method="Triples (T)" stateSymmetry="1" stateNumber="1"
     value="-0.404515831543551E-02"/><!--
  Total correlation energy             -0.232321037681
   --><property name="energy" method="Total correlation" stateSymmetry="1" stateNumber="1"
     value="-0.232321037680841"/><!--

  RHF-RCCSD energy                    -75.087769727973
   --><property name="energy" method="RHF-RCCSD" stateSymmetry="1" stateNumber="1"
     value="-75.0877697279735"/><!--
  RHF-RCCSD[T] energy                 -75.091837973582
   --><property name="energy" method="RHF-RCCSD[T]" stateSymmetry="1" stateNumber="1"
     value="-75.091837973582"/><!--
  RHF-RCCSD-T energy                  -75.091784539579
   --><property name="energy" method="RHF-RCCSD-T" stateSymmetry="1" stateNumber="1"
     value="-75.0917845395791"/><!--
 !RHF-RCCSD(T) energy                 -75.091814886289
   --><property name="energy" method="RHF-RCCSD(T)" principal="true" stateSymmetry="1"
     stateNumber="1" value="-75.0918148862889"/><!--

 Program statistics:

 Available memory in ccsd:               999999650
 Min. memory needed in ccsd:                 65833
 Max. memory used in ccsd:                   80226
 Max. memory used in cckext:                 98648 ( 7 integral passes)
 Max. memory used in cckint:                138017 ( 1 integral passes)



 **********************************************************************************************************************************
 DATASETS  * FILE   NREC   LENGTH (MB)   RECORD NAMES
              1      23       20.13       500      610      700      701      900      950      970     1001      129      960
                                          VAR    BASINP    GEOM     GEOM    SYMINP    ZMAT    AOBASIS   BASIS     P2S    ABASIS
                                         1700     1101     1401     1411     1412     1650     1100     1400     1410     1200
                                         OPER      SR      EKINR    POTR     PVPR    MOLCAS      S      EKIN      POT      H0
                                         1210     1080     1600
                                          H01     AOSYM     SMH

              2       7        6.18       700     1000      520     4202      701     1001     2101
                                         GEOM     BASIS   MCVARS     RHF     GEOM     BASIS     RHF

 PROGRAMS   *        TOTAL  RCCSD(T)       RHF       INT  RCCSD(T)       RHF       INT
 CPU TIMES  *      2858.55      0.57      0.11      0.80   2765.29      4.60     86.70
 REAL TIME  *      3458.56 SEC
 DISK USED  *         7.40 GB
 SF USED    *         3.84 GB
 GA USED    *         0.00 MB       (max)       0.00 MB       (current)
 **********************************************************************************************************************************
   -->
   <time start="13:56:37" end="13:56:38" cpu="0.57" system="0.03" real="0.88"/>
   <storage units="megabyte" memory="8001.84" sf="3836.1" df="5334.35" eaf="2067.14"
     ga="0.0"/>
  </jobstep><!--
 SETTING O_CCSD         =       -75.09181489  AU
 SETTING NE             =        65.00000000
 SETTING SYMM           =         1.00000000
 SETTING SS             =         1.00000000
 SETTING A1             =        14.00000000
 SETTING B1             =         4.00000000
 SETTING B2             =         4.00000000
 SETTING A2             =         2.00000000

Geometry recognized as XYZ

  --><jobstep command="RHF-SCF" commandset="SCFPRO">
   <!--


 Recomputing integrals since geometry and symmetry changed


 Using spherical harmonics



 PROGRAM * SEWARD (Integral evaluation for generally contracted gaussian basis sets)     Author: Roland Lindh, 1990

 Geometry written to block  1 of record 702


 Point group  C2v


   --><cml:molecule>
    <cml:symmetry pointGroup="C2v"/>
    <cml:atomArray>
     <cml:atom id="a1" elementType="La" x3="0.0" y3="0.0" z3="0.0"/>
     <cml:atom id="a2" elementType="O" x3="0.0" y3="0.0" z3="1.7"/>
    </cml:atomArray>
    <cml:bondArray>
     <cml:bond atomRefs2="a1 a2"/>
    </cml:bondArray>
   </cml:molecule><!--

 ATOMIC COORDINATES

 NR  ATOM    CHARGE       X              Y              Z

   1  LA     57.00    0.000000000    0.000000000    0.000000000
   2  O       8.00    0.000000000    0.000000000    3.212534412

 Bond lengths in Bohr (Angstrom)

 1-2  3.212534412
     ( 1.700000000)

 NUCLEAR CHARGE:                   65
 NUMBER OF PRIMITIVE AOS:         495
 NUMBER OF SYMMETRY AOS:          396
 NUMBER OF CONTRACTIONS:          396   ( 163A1  +  94B1  +  94B2  +  45A2  )
 NUMBER OF CORE ORBITALS:          24   (  12A1  +   5B1  +   5B2  +   2A2  )
 NUMBER OF VALENCE ORBITALS:       21   (   9A1  +   5B1  +   5B2  +   2A2  )

 MOLECULE CHANGED: INITIALIZING OCCUPATION AND DUMP RECORDS


 NUCLEAR REPULSION ENERGY  141.94400481

 One-electron integrals computed with SEWARD

 10nd-order Douglas-Kroll-Hess method activated. McWeeny DKH parametrization is used.

 Computing Douglas-Kroll / X2C integrals

 AO integral compression algorithm  1   Integral accuracy      1.0D-12

     1762.394 MB (compressed) written to integral file ( 25.4%)

     Node minimum: 524.550 MB, node maximum: 657.457 MB


 NUMBER OF SORTED TWO-ELECTRON INTEGRALS:  263747223.     BUFFER LENGTH:  32768
 NUMBER OF SEGMENTS:   9  SEGMENT LENGTH:   31998660      RECORD LENGTH: 524288

 Memory used in sort:      32.56 MW

 SORT1 READ   868791281. AND WROTE    91104784. INTEGRALS IN    266 RECORDS. CPU TIME:    13.61 SEC, REAL TIME:    21.50 SEC
 SORT2 READ   274062139. AND WROTE   791357556. INTEGRALS IN   6003 RECORDS. CPU TIME:     4.47 SEC, REAL TIME:     9.10 SEC

 Node minimum:   263747223.  Node maximum:   263855334. integrals

 OPERATOR DM      FOR CENTER  0  COORDINATES:    0.000000    0.000000    0.000000

 EXTRA SYMMETRY OF AOS IN SYMMETRY 1:   1 1 1 1 1 1 1 1 1 1   1 1 1 1 1 1 1 1 1 1   1 1 1 1 1 1 1 1 1 1   1 1 1 1 1 1 1 1 1 1
                                        1 1 1 1 1 1 1 1 1 1   1 1 1 1 1 1 1 1 2 1   2 1 2 1 2 1 2 1 2 1   2 1 2 1 2 1 2 1 2 1
                                        2 1 2 1 2 1 2 1 2 1   2 1 2 1 2 1 2 1 2 1   2 1 2 1 2 1 2 1 2 1   2 1 2 1 2 1 3 2 1 3
                                        2 1 3 2 1 3 2 2 3 1   1 1 1 1 1 1 1 1 1 1   1 1 1 1 1 1 1 1 1 1   1 1 2 1 2 1 2 1 2 1
                                        2 1 2
 EXTRA SYMMETRY OF AOS IN SYMMETRY 2:   1 1 1 1 1 1 1 1 1 1   1 1 1 1 1 1 1 1 1 1   1 1 1 1 1 1 1 1 1 1   1 1 1 1 1 1 1 1 1 1
                                        1 1 2 1 2 1 2 1 2 1   2 1 2 1 2 1 2 1 2 1   2 1 2 1 2 1 2 1 2 1   2 1 2 1 2 1 2 3 1 1
                                        1 1 1 1 1 1 1 1 1 1   1 2 1 2
 EXTRA SYMMETRY OF AOS IN SYMMETRY 3:   1 1 1 1 1 1 1 1 1 1   1 1 1 1 1 1 1 1 1 1   1 1 1 1 1 1 1 1 1 1   1 1 1 1 1 1 1 1 1 1
                                        1 1 2 1 2 1 2 1 2 1   2 1 2 1 2 1 2 1 2 1   2 1 2 1 2 1 2 1 2 1   2 1 2 1 2 1 2 3 1 1
                                        1 1 1 1 1 1 1 1 1 1   1 2 1 2
 EXTRA SYMMETRY OF AOS IN SYMMETRY 4:   1 1 1 1 1 1 1 1 1 1   1 1 1 1 1 1 1 1 1 1   1 1 1 1 1 1 1 1 1 1   2 1 2 1 2 1 2 2 1 1
                                        1 1 1 1 1

 Eigenvalues of metric

         1 0.161E-07 0.210E-05 0.556E-05 0.249E-04 0.287E-04 0.721E-04 0.768E-04 0.779E-04
         2 0.584E-05 0.748E-04 0.769E-04 0.336E-03 0.114E-02 0.118E-02 0.124E-02 0.173E-02
         3 0.584E-05 0.748E-04 0.769E-04 0.336E-03 0.114E-02 0.118E-02 0.124E-02 0.173E-02
         4 0.768E-04 0.124E-02 0.174E-02 0.625E-02 0.164E-01 0.238E-01 0.368E-01 0.642E-01


 **********************************************************************************************************************************
 DATASETS  * FILE   NREC   LENGTH (MB)   RECORD NAMES
              1      23       23.25       500      610      700      702      900      950      970     1002      129      960
                                          VAR    BASINP    GEOM     GEOM    SYMINP    ZMAT    AOBASIS   BASIS     P2S    ABASIS
                                         1700     1101     1401     1411     1412     1650     1100     1400     1410     1200
                                         OPER      SR      EKINR    POTR     PVPR    MOLCAS      S      EKIN      POT      H0
                                         1210     1080     1600
                                          H01     AOSYM     SMH

              2       9        6.46       700     1000      520     4202      701     1001     2101      702     1002
                                         GEOM     BASIS   MCVARS     RHF     GEOM     BASIS     RHF     GEOM     BASIS

 PROGRAMS   *        TOTAL       INT  RCCSD(T)       RHF       INT  RCCSD(T)       RHF       INT
 CPU TIMES  *      3004.09    145.54      0.57      0.11      0.80   2765.29      4.60     86.70
 REAL TIME  *      3617.59 SEC
 DISK USED  *        10.34 GB
 SF USED    *         3.84 GB
 GA USED    *         0.00 MB       (max)       0.00 MB       (current)
 **********************************************************************************************************************************


 PROGRAM * RHF-SCF (OPEN SHELL)       Authors: W. Meyer, H.-J. Werner


 NUMBER OF ELECTRONS:      33+   32-    SPACE SYMMETRY=1    SPIN SYMMETRY: Doublet
 CONVERGENCE THRESHOLDS:    1.00E-05 (Density)    1.30E-07 (Energy)
 MAX. NUMBER OF ITERATIONS:      200
 INTERPOLATION TYPE:            DIIS
 INTERPOLATION STEPS:              2 (START)      1 (STEP)
 LEVEL SHIFTS:                 -0.60 (CLOSED) -0.30 (OPEN)


 ?DUMP RECORD  4202.2 CORRESPONDS TO DIFFERENT BASIS OR MOLECULE
   --><error/><!--
  --></jobstep><!--
  -->
  <input>
  <!--
 --></job><!--
--></molpro>
